5997
   74
    1CHL1    C3    1   0.657   0.056   0.045
    1CHL1    H3    2   0.655   0.017   0.148
    1CHL1    O3    3   0.793   0.082   0.012
    1CHL1   H3'    4   0.841  -0.002   0.016
    1CHL1    C4    5   0.600  -0.047  -0.051
    1CHL1   H4A    6   0.655  -0.141  -0.040
    1CHL1   H4B    7   0.618  -0.015  -0.155
    1CHL1    C5    8   0.451  -0.066  -0.031
    1CHL1    C6    9   0.401  -0.190  -0.016
    1CHL1    H6   10   0.468  -0.275  -0.018
    1CHL1    C7   11   0.256  -0.222   0.002
    1CHL1   H7A   12   0.230  -0.306  -0.063
    1CHL1   H7B   13   0.242  -0.256   0.106
    1CHL1    C8   14   0.163  -0.104  -0.028
    1CHL1    H8   15   0.157  -0.094  -0.137
    1CHL1   C14   16   0.023  -0.129   0.028
    1CHL1   H14   17   0.035  -0.139   0.138
    1CHL1   C15   18  -0.054  -0.253  -0.017
    1CHL1  H15A   19  -0.019  -0.343   0.034
    1CHL1  H15B   20  -0.043  -0.269  -0.125
    1CHL1   C16   21  -0.200  -0.222   0.019
    1CHL1  H16A   22  -0.264  -0.239  -0.069
    1CHL1  H16B   23  -0.236  -0.288   0.099
    1CHL1   C17   24  -0.203  -0.074   0.065
    1CHL1   H17   25  -0.191  -0.075   0.174
    1CHL1   C13   26  -0.076  -0.013   0.002
    1CHL1   C18   27  -0.097   0.018  -0.149
    1CHL1  H18A   28  -0.161   0.105  -0.163
    1CHL1  H18B   29  -0.004   0.039  -0.201
    1CHL1  H18C   30  -0.144  -0.066  -0.202
    1CHL1   C12   31  -0.021   0.111   0.073
    1CHL1  H12A   32  -0.018   0.094   0.182
    1CHL1  H12B   33  -0.081   0.200   0.058
    1CHL1   C11   34   0.121   0.146   0.025
    1CHL1  H11A   35   0.114   0.184  -0.077
    1CHL1  H11B   36   0.157   0.229   0.087
    1CHL1    C9   37   0.221   0.027   0.032
    1CHL1    H9   38   0.234   0.007   0.140
    1CHL1   C10   39   0.364   0.060  -0.026
    1CHL1   C19   40   0.354   0.117  -0.170
    1CHL1  H19A   41   0.306   0.215  -0.171
    1CHL1  H19B   42   0.453   0.131  -0.216
    1CHL1  H19C   43   0.298   0.051  -0.236
    1CHL1    C1   44   0.431   0.166   0.067
    1CHL1   H1A   45   0.380   0.262   0.058
    1CHL1   H1B   46   0.421   0.134   0.171
    1CHL1    C2   47   0.580   0.188   0.039
    1CHL1   H2A   48   0.622   0.258   0.112
    1CHL1   H2B   49   0.595   0.235  -0.059
    1CHL1   C20   50  -0.335  -0.005   0.033
    1CHL1   H20   51  -0.353  -0.009  -0.075
    1CHL1   C21   52  -0.328   0.143   0.075
    1CHL1  H21A   53  -0.425   0.193   0.072
    1CHL1  H21B   54  -0.288   0.155   0.176
    1CHL1  H21C   55  -0.269   0.201   0.004
    1CHL1   C22   56  -0.456  -0.071   0.102
    1CHL1  H22A   57  -0.464  -0.175   0.069
    1CHL1  H22B   58  -0.437  -0.075   0.211
    1CHL1   C23   59  -0.591  -0.003   0.080
    1CHL1  H23A   60  -0.592   0.097   0.124
    1CHL1  H23B   61  -0.664  -0.060   0.139
    1CHL1   C24   62  -0.637  -0.003  -0.066
    1CHL1  H24A   63  -0.561   0.046  -0.128
    1CHL1  H24B   64  -0.645  -0.106  -0.102
    1CHL1   C25   65  -0.770   0.072  -0.089
    1CHL1   H25   66  -0.790   0.071  -0.196
    1CHL1   C26   67  -0.765   0.217  -0.041
    1CHL1  H26A   68  -0.678   0.269  -0.083
    1CHL1  H26B   69  -0.854   0.271  -0.074
    1CHL1  H26C   70  -0.761   0.225   0.068
    1CHL1   C27   71  -0.883  -0.002  -0.017
    1CHL1  H27A   72  -0.886  -0.108  -0.046
    1CHL1  H27B   73  -0.980   0.042  -0.045
    1CHL1  H27C   74  -0.875   0.004   0.092
   0.10000   0.10000   0.10000
