Great Red Owns Many ACres of Sand 
   89
    1MIG     C1    1   1.010   0.102  -0.821
    1MIG     C2    2   0.913   0.149  -0.714
    1MIG     C3    3   0.823   0.035  -0.665
    1MIG     C4    4   0.725   0.081  -0.557
    1MIG     C5    5   0.637  -0.034  -0.509
    1MIG     C6    6   0.539   0.012  -0.402
    1MIG     C7    7   0.450  -0.102  -0.353
    1MIG     C8    8   0.352  -0.056  -0.245
    1MIG     C9    9   0.262  -0.171  -0.197
    1MIG    C10   10   0.172  -0.130  -0.081
    1MIG     O1   11   0.171  -0.180   0.030
    1MIG     O2   12   0.091  -0.032  -0.122
    1MIG    C11   13  -0.006   0.010  -0.023
    1MIG    C12   14  -0.104   0.116  -0.083
    1MIG    C13   15  -0.196   0.180   0.028
    1MIG     O3   16  -0.294   0.266  -0.033
    1MIG    C14   17  -0.392   0.334   0.029
    1MIG     O4   18  -0.461   0.417  -0.028
    1MIG    C15   19  -0.420   0.299   0.175
    1MIG    C16   20  -0.530   0.192   0.186
    1MIG    C17   21  -0.578   0.169   0.330
    1MIG    C18   22  -0.683   0.059   0.339
    1MIG    C19   23  -0.728   0.034   0.483
    1MIG    C20   24  -0.833  -0.077   0.492
    1MIG    C21   25  -0.877  -0.102   0.636
    1MIG     O5   26  -0.029   0.220  -0.145
    1MIG    C22   27   0.026   0.233  -0.267
    1MIG     O6   28   0.094   0.330  -0.294
    1MIG    C23   29   0.008   0.129  -0.382
    1MIG    C24   30  -0.076  -0.001  -0.385
    1MIG    C25   31  -0.061  -0.070  -0.522
    1MIG    C26   32  -0.139  -0.201  -0.532
    1MIG    C27   33  -0.124  -0.268  -0.669
    1MIG    C28   34  -0.203  -0.399  -0.678
    1MIG    C29   35  -0.189  -0.467  -0.814
    1MIG     H1   36   0.955   0.062  -0.909
    1MIG     H2   37   1.076   0.022  -0.781
    1MIG     H3   38   1.074   0.187  -0.855
    1MIG     H4   39   0.848   0.230  -0.754
    1MIG     H5   40   0.969   0.190  -0.627
    1MIG     H6   41   0.887  -0.047  -0.624
    1MIG     H7   42   0.766  -0.007  -0.751
    1MIG     H8   43   0.661   0.162  -0.598
    1MIG     H9   44   0.782   0.122  -0.471
    1MIG    H10   45   0.701  -0.116  -0.469
    1MIG    H11   46   0.581  -0.076  -0.596
    1MIG    H12   47   0.476   0.094  -0.443
    1MIG    H13   48   0.596   0.054  -0.316
    1MIG    H14   49   0.515  -0.184  -0.313
    1MIG    H15   50   0.394  -0.144  -0.440
    1MIG    H16   51   0.291   0.028  -0.286
    1MIG    H17   52   0.411  -0.015  -0.160
    1MIG    H18   53   0.326  -0.255  -0.162
    1MIG    H19   54   0.199  -0.206  -0.280
    1MIG    H20   55   0.047   0.056   0.064
    1MIG    H21   56  -0.065  -0.076   0.014
    1MIG    H22   57  -0.171   0.067  -0.156
    1MIG    H23   58  -0.130   0.239   0.096
    1MIG    H24   59  -0.244   0.099   0.086
    1MIG    H25   60  -0.462   0.392   0.220
    1MIG    H26   61  -0.329   0.273   0.232
    1MIG    H27   62  -0.493   0.095   0.145
    1MIG    H28   63  -0.619   0.223   0.126
    1MIG    H29   64  -0.621   0.264   0.371
    1MIG    H30   65  -0.491   0.142   0.394
    1MIG    H31   66  -0.641  -0.035   0.297
    1MIG    H32   67  -0.772   0.087   0.277
    1MIG    H33   68  -0.771   0.128   0.525
    1MIG    H34   69  -0.640   0.006   0.544
    1MIG    H35   70  -0.790  -0.171   0.450
    1MIG    H36   71  -0.921  -0.050   0.430
    1MIG    H37   72  -0.922  -0.010   0.679
    1MIG    H38   73  -0.790  -0.131   0.699
    1MIG    H39   74  -0.953  -0.183   0.641
    1MIG    H40   75   0.112   0.100  -0.409
    1MIG    H41   76  -0.028   0.191  -0.468
    1MIG    H42   77  -0.184   0.021  -0.369
    1MIG    H43   78  -0.042  -0.073  -0.308
    1MIG    H44   79   0.047  -0.091  -0.541
    1MIG    H45   80  -0.095  -0.001  -0.602
    1MIG    H46   81  -0.247  -0.180  -0.514
    1MIG    H47   82  -0.104  -0.271  -0.453
    1MIG    H48   83  -0.017  -0.290  -0.688
    1MIG    H49   84  -0.160  -0.199  -0.748
    1MIG    H50   85  -0.311  -0.377  -0.658
    1MIG    H51   86  -0.168  -0.468  -0.598
    1MIG    H52   87  -0.082  -0.491  -0.834
    1MIG    H53   88  -0.226  -0.400  -0.894
    1MIG    H54   89  -0.248  -0.561  -0.817
   0.00000   0.00000   0.00000
