
integrator              = md
dt                      = 0.002
nsteps                  = 250000 ; 500 ps
nstxout                 = 10000
nstvout                 = 10000
nstlog                  = 1000
continuation            = yes
gen_vel                 = no
pcoupl                  = Berendsen
pcoupltype              = semiisotropic
tau_p                   = 5.0
compressibility         = 4.5e-5  4.5e-5
ref_p                   = 1.0     1.0

; CHRAMM-GUI defaults with some adjustments JS March 2020
cutoff-scheme           = Verlet
nstlist                 = 20
rlist                   = 1.2
coulombtype             = pme
rcoulomb                = 1.2
vdwtype                 = Cut-off
vdw-modifier            = Force-switch
rvdw_switch             = 1.0
rvdw                    = 1.2

tcoupl                  = v-rescale
tc_grps                 = System
tau_t                   = 1.0
ref_t                   = 310.15

constraints             = h-bonds
constraint_algorithm    = LINCS

nstcomm                 = 100
comm_mode               = linear
comm_grps               = System

refcoord_scaling        = com
