;;
;; Generated by CHARMM-GUI (http://www.charmm-gui.org) v1.7
;;
;; psf2itp_mol.py
;;
;; Correspondance:
;; jul316@lehigh.edu or wonpil@lehigh.edu
;;
;; GROMACS topology file for MIG
;;


[ moleculetype ]
; name	nrexcl
MIG	     3

[ atoms ]
; nr	type	resnr	residu	atom	cgnr	charge	mass
     1      CG331      1      MIG     C1      1     -0.270    12.0110   ; qtot -0.270
     2      CG321      1      MIG     C2      2     -0.180    12.0110   ; qtot -0.450
     3      CG321      1      MIG     C3      3     -0.182    12.0110   ; qtot -0.632
     4      CG321      1      MIG     C4      4     -0.178    12.0110   ; qtot -0.810
     5      CG321      1      MIG     C5      5     -0.180    12.0110   ; qtot -0.990
     6      CG321      1      MIG     C6      6     -0.180    12.0110   ; qtot -1.170
     7      CG321      1      MIG     C7      7     -0.179    12.0110   ; qtot -1.349
     8      CG321      1      MIG     C8      8     -0.179    12.0110   ; qtot -1.528
     9      CG321      1      MIG     C9      9     -0.229    12.0110   ; qtot -1.757
    10      CG2O2      1      MIG    C10     10      0.904    12.0110   ; qtot -0.853
    11      OG2D1      1      MIG     O1     11     -0.632    15.9994   ; qtot -1.485
    12      OG302      1      MIG     O2     12     -0.486    15.9994   ; qtot -1.971
    13      CG321      1      MIG    C11     13      0.083    12.0110   ; qtot -1.888
    14      CG311      1      MIG    C12     14      0.165    12.0110   ; qtot -1.723
    15      CG321      1      MIG    C13     15      0.083    12.0110   ; qtot -1.640
    16      OG302      1      MIG     O3     16     -0.486    15.9994   ; qtot -2.126
    17      CG2O2      1      MIG    C14     17      0.904    12.0110   ; qtot -1.222
    18      OG2D1      1      MIG     O4     18     -0.632    15.9994   ; qtot -1.854
    19      CG321      1      MIG    C15     19     -0.229    12.0110   ; qtot -2.083
    20      CG321      1      MIG    C16     20     -0.179    12.0110   ; qtot -2.262
    21      CG321      1      MIG    C17     21     -0.179    12.0110   ; qtot -2.441
    22      CG321      1      MIG    C18     22     -0.178    12.0110   ; qtot -2.619
    23      CG321      1      MIG    C19     23     -0.182    12.0110   ; qtot -2.801
    24      CG321      1      MIG    C20     24     -0.180    12.0110   ; qtot -2.981
    25      CG331      1      MIG    C21     25     -0.270    12.0110   ; qtot -3.251
    26      OG302      1      MIG     O5     26     -0.494    15.9994   ; qtot -3.745
    27      CG2O2      1      MIG    C22     27      0.905    12.0110   ; qtot -2.840
    28      OG2D1      1      MIG     O6     28     -0.640    15.9994   ; qtot -3.480
    29      CG321      1      MIG    C23     29     -0.212    12.0110   ; qtot -3.692
    30      CG321      1      MIG    C24     30     -0.179    12.0110   ; qtot -3.871
    31      CG321      1      MIG    C25     31     -0.179    12.0110   ; qtot -4.050
    32      CG321      1      MIG    C26     32     -0.178    12.0110   ; qtot -4.228
    33      CG321      1      MIG    C27     33     -0.182    12.0110   ; qtot -4.410
    34      CG321      1      MIG    C28     34     -0.180    12.0110   ; qtot -4.590
    35      CG331      1      MIG    C29     35     -0.270    12.0110   ; qtot -4.860
    36       HGA3      1      MIG     H1     36      0.090     1.0080   ; qtot -4.770
    37       HGA3      1      MIG     H2     37      0.090     1.0080   ; qtot -4.680
    38       HGA3      1      MIG     H3     38      0.090     1.0080   ; qtot -4.590
    39       HGA2      1      MIG     H4     39      0.090     1.0080   ; qtot -4.500
    40       HGA2      1      MIG     H5     40      0.090     1.0080   ; qtot -4.410
    41       HGA2      1      MIG     H6     41      0.090     1.0080   ; qtot -4.320
    42       HGA2      1      MIG     H7     42      0.090     1.0080   ; qtot -4.230
    43       HGA2      1      MIG     H8     43      0.090     1.0080   ; qtot -4.140
    44       HGA2      1      MIG     H9     44      0.090     1.0080   ; qtot -4.050
    45       HGA2      1      MIG    H10     45      0.090     1.0080   ; qtot -3.960
    46       HGA2      1      MIG    H11     46      0.090     1.0080   ; qtot -3.870
    47       HGA2      1      MIG    H12     47      0.090     1.0080   ; qtot -3.780
    48       HGA2      1      MIG    H13     48      0.090     1.0080   ; qtot -3.690
    49       HGA2      1      MIG    H14     49      0.090     1.0080   ; qtot -3.600
    50       HGA2      1      MIG    H15     50      0.090     1.0080   ; qtot -3.510
    51       HGA2      1      MIG    H16     51      0.090     1.0080   ; qtot -3.420
    52       HGA2      1      MIG    H17     52      0.090     1.0080   ; qtot -3.330
    53       HGA2      1      MIG    H18     53      0.090     1.0080   ; qtot -3.240
    54       HGA2      1      MIG    H19     54      0.090     1.0080   ; qtot -3.150
    55       HGA2      1      MIG    H20     55      0.090     1.0080   ; qtot -3.060
    56       HGA2      1      MIG    H21     56      0.090     1.0080   ; qtot -2.970
    57       HGA1      1      MIG    H22     57      0.090     1.0080   ; qtot -2.880
    58       HGA2      1      MIG    H23     58      0.090     1.0080   ; qtot -2.790
    59       HGA2      1      MIG    H24     59      0.090     1.0080   ; qtot -2.700
    60       HGA2      1      MIG    H25     60      0.090     1.0080   ; qtot -2.610
    61       HGA2      1      MIG    H26     61      0.090     1.0080   ; qtot -2.520
    62       HGA2      1      MIG    H27     62      0.090     1.0080   ; qtot -2.430
    63       HGA2      1      MIG    H28     63      0.090     1.0080   ; qtot -2.340
    64       HGA2      1      MIG    H29     64      0.090     1.0080   ; qtot -2.250
    65       HGA2      1      MIG    H30     65      0.090     1.0080   ; qtot -2.160
    66       HGA2      1      MIG    H31     66      0.090     1.0080   ; qtot -2.070
    67       HGA2      1      MIG    H32     67      0.090     1.0080   ; qtot -1.980
    68       HGA2      1      MIG    H33     68      0.090     1.0080   ; qtot -1.890
    69       HGA2      1      MIG    H34     69      0.090     1.0080   ; qtot -1.800
    70       HGA2      1      MIG    H35     70      0.090     1.0080   ; qtot -1.710
    71       HGA2      1      MIG    H36     71      0.090     1.0080   ; qtot -1.620
    72       HGA3      1      MIG    H37     72      0.090     1.0080   ; qtot -1.530
    73       HGA3      1      MIG    H38     73      0.090     1.0080   ; qtot -1.440
    74       HGA3      1      MIG    H39     74      0.090     1.0080   ; qtot -1.350
    75       HGA2      1      MIG    H40     75      0.090     1.0080   ; qtot -1.260
    76       HGA2      1      MIG    H41     76      0.090     1.0080   ; qtot -1.170
    77       HGA2      1      MIG    H42     77      0.090     1.0080   ; qtot -1.080
    78       HGA2      1      MIG    H43     78      0.090     1.0080   ; qtot -0.990
    79       HGA2      1      MIG    H44     79      0.090     1.0080   ; qtot -0.900
    80       HGA2      1      MIG    H45     80      0.090     1.0080   ; qtot -0.810
    81       HGA2      1      MIG    H46     81      0.090     1.0080   ; qtot -0.720
    82       HGA2      1      MIG    H47     82      0.090     1.0080   ; qtot -0.630
    83       HGA2      1      MIG    H48     83      0.090     1.0080   ; qtot -0.540
    84       HGA2      1      MIG    H49     84      0.090     1.0080   ; qtot -0.450
    85       HGA2      1      MIG    H50     85      0.090     1.0080   ; qtot -0.360
    86       HGA2      1      MIG    H51     86      0.090     1.0080   ; qtot -0.270
    87       HGA3      1      MIG    H52     87      0.090     1.0080   ; qtot -0.180
    88       HGA3      1      MIG    H53     88      0.090     1.0080   ; qtot -0.090
    89       HGA3      1      MIG    H54     89      0.090     1.0080   ; qtot -0.000

[ bonds ]
; ai	aj	funct	b0	Kb
    1     2     1
    1    36     1
    1    37     1
    1    38     1
    2     3     1
    2    39     1
    2    40     1
    3     4     1
    3    41     1
    3    42     1
    4     5     1
    4    43     1
    4    44     1
    5     6     1
    5    45     1
    5    46     1
    6     7     1
    6    47     1
    6    48     1
    7     8     1
    7    49     1
    7    50     1
    8     9     1
    8    51     1
    8    52     1
    9    10     1
    9    53     1
    9    54     1
   10    11     1
   10    12     1
   12    13     1
   13    14     1
   13    55     1
   13    56     1
   14    15     1
   14    26     1
   14    57     1
   15    16     1
   15    58     1
   15    59     1
   16    17     1
   17    18     1
   17    19     1
   19    20     1
   19    60     1
   19    61     1
   20    21     1
   20    62     1
   20    63     1
   21    22     1
   21    64     1
   21    65     1
   22    23     1
   22    66     1
   22    67     1
   23    24     1
   23    68     1
   23    69     1
   24    25     1
   24    70     1
   24    71     1
   25    72     1
   25    73     1
   25    74     1
   26    27     1
   27    28     1
   27    29     1
   29    30     1
   29    75     1
   29    76     1
   30    31     1
   30    77     1
   30    78     1
   31    32     1
   31    79     1
   31    80     1
   32    33     1
   32    81     1
   32    82     1
   33    34     1
   33    83     1
   33    84     1
   34    35     1
   34    85     1
   34    86     1
   35    87     1
   35    88     1
   35    89     1

[ pairs ]
; ai	aj	funct	c6	c12
    1     4     1 
    1    41     1 
    1    42     1 
    2     5     1 
    2    43     1 
    2    44     1 
    3     6     1 
    3    36     1 
    3    37     1 
    3    38     1 
    3    45     1 
    3    46     1 
    4     7     1 
    4    39     1 
    4    40     1 
    4    47     1 
    4    48     1 
    5     8     1 
    5    41     1 
    5    42     1 
    5    49     1 
    5    50     1 
    6     9     1 
    6    43     1 
    6    44     1 
    6    51     1 
    6    52     1 
    7    10     1 
    7    45     1 
    7    46     1 
    7    53     1 
    7    54     1 
    8    11     1 
    8    12     1 
    8    47     1 
    8    48     1 
    9    13     1 
    9    49     1 
    9    50     1 
   10    14     1 
   10    51     1 
   10    52     1 
   10    55     1 
   10    56     1 
   11    13     1 
   11    53     1 
   11    54     1 
   12    15     1 
   12    26     1 
   12    53     1 
   12    54     1 
   12    57     1 
   13    16     1 
   13    27     1 
   13    58     1 
   13    59     1 
   14    17     1 
   14    28     1 
   14    29     1 
   15    18     1 
   15    19     1 
   15    27     1 
   15    55     1 
   15    56     1 
   16    20     1 
   16    26     1 
   16    57     1 
   16    60     1 
   16    61     1 
   17    21     1 
   17    58     1 
   17    59     1 
   17    62     1 
   17    63     1 
   18    20     1 
   18    60     1 
   18    61     1 
   19    22     1 
   19    64     1 
   19    65     1 
   20    23     1 
   20    66     1 
   20    67     1 
   21    24     1 
   21    60     1 
   21    61     1 
   21    68     1 
   21    69     1 
   22    25     1 
   22    62     1 
   22    63     1 
   22    70     1 
   22    71     1 
   23    64     1 
   23    65     1 
   23    72     1 
   23    73     1 
   23    74     1 
   24    66     1 
   24    67     1 
   25    68     1 
   25    69     1 
   26    30     1 
   26    55     1 
   26    56     1 
   26    58     1 
   26    59     1 
   26    75     1 
   26    76     1 
   27    31     1 
   27    57     1 
   27    77     1 
   27    78     1 
   28    30     1 
   28    75     1 
   28    76     1 
   29    32     1 
   29    79     1 
   29    80     1 
   30    33     1 
   30    81     1 
   30    82     1 
   31    34     1 
   31    75     1 
   31    76     1 
   31    83     1 
   31    84     1 
   32    35     1 
   32    77     1 
   32    78     1 
   32    85     1 
   32    86     1 
   33    79     1 
   33    80     1 
   33    87     1 
   33    88     1 
   33    89     1 
   34    81     1 
   34    82     1 
   35    83     1 
   35    84     1 
   36    39     1 
   36    40     1 
   37    39     1 
   37    40     1 
   38    39     1 
   38    40     1 
   39    41     1 
   39    42     1 
   40    41     1 
   40    42     1 
   41    43     1 
   41    44     1 
   42    43     1 
   42    44     1 
   43    45     1 
   43    46     1 
   44    45     1 
   44    46     1 
   45    47     1 
   45    48     1 
   46    47     1 
   46    48     1 
   47    49     1 
   47    50     1 
   48    49     1 
   48    50     1 
   49    51     1 
   49    52     1 
   50    51     1 
   50    52     1 
   51    53     1 
   51    54     1 
   52    53     1 
   52    54     1 
   55    57     1 
   56    57     1 
   57    58     1 
   57    59     1 
   60    62     1 
   60    63     1 
   61    62     1 
   61    63     1 
   62    64     1 
   62    65     1 
   63    64     1 
   63    65     1 
   64    66     1 
   64    67     1 
   65    66     1 
   65    67     1 
   66    68     1 
   66    69     1 
   67    68     1 
   67    69     1 
   68    70     1 
   68    71     1 
   69    70     1 
   69    71     1 
   70    72     1 
   70    73     1 
   70    74     1 
   71    72     1 
   71    73     1 
   71    74     1 
   75    77     1 
   75    78     1 
   76    77     1 
   76    78     1 
   77    79     1 
   77    80     1 
   78    79     1 
   78    80     1 
   79    81     1 
   79    82     1 
   80    81     1 
   80    82     1 
   81    83     1 
   81    84     1 
   82    83     1 
   82    84     1 
   83    85     1 
   83    86     1 
   84    85     1 
   84    86     1 
   85    87     1 
   85    88     1 
   85    89     1 
   86    87     1 
   86    88     1 
   86    89     1 

[ angles ] 
; ai	aj	ak	funct	th0	cth	S0	Kub
    2     1    36     5
    2     1    37     5
    2     1    38     5
   36     1    37     5
   36     1    38     5
   37     1    38     5
    1     2     3     5
    1     2    39     5
    1     2    40     5
    3     2    39     5
    3     2    40     5
   39     2    40     5
    2     3     4     5
    2     3    41     5
    2     3    42     5
    4     3    41     5
    4     3    42     5
   41     3    42     5
    3     4     5     5
    3     4    43     5
    3     4    44     5
    5     4    43     5
    5     4    44     5
   43     4    44     5
    4     5     6     5
    4     5    45     5
    4     5    46     5
    6     5    45     5
    6     5    46     5
   45     5    46     5
    5     6     7     5
    5     6    47     5
    5     6    48     5
    7     6    47     5
    7     6    48     5
   47     6    48     5
    6     7     8     5
    6     7    49     5
    6     7    50     5
    8     7    49     5
    8     7    50     5
   49     7    50     5
    7     8     9     5
    7     8    51     5
    7     8    52     5
    9     8    51     5
    9     8    52     5
   51     8    52     5
    8     9    10     5
    8     9    53     5
    8     9    54     5
   10     9    53     5
   10     9    54     5
   53     9    54     5
    9    10    11     5
    9    10    12     5
   11    10    12     5
   10    12    13     5
   12    13    14     5
   12    13    55     5
   12    13    56     5
   14    13    55     5
   14    13    56     5
   55    13    56     5
   13    14    15     5
   13    14    26     5
   13    14    57     5
   15    14    26     5
   15    14    57     5
   26    14    57     5
   14    15    16     5
   14    15    58     5
   14    15    59     5
   16    15    58     5
   16    15    59     5
   58    15    59     5
   15    16    17     5
   16    17    18     5
   16    17    19     5
   18    17    19     5
   17    19    20     5
   17    19    60     5
   17    19    61     5
   20    19    60     5
   20    19    61     5
   60    19    61     5
   19    20    21     5
   19    20    62     5
   19    20    63     5
   21    20    62     5
   21    20    63     5
   62    20    63     5
   20    21    22     5
   20    21    64     5
   20    21    65     5
   22    21    64     5
   22    21    65     5
   64    21    65     5
   21    22    23     5
   21    22    66     5
   21    22    67     5
   23    22    66     5
   23    22    67     5
   66    22    67     5
   22    23    24     5
   22    23    68     5
   22    23    69     5
   24    23    68     5
   24    23    69     5
   68    23    69     5
   23    24    25     5
   23    24    70     5
   23    24    71     5
   25    24    70     5
   25    24    71     5
   70    24    71     5
   24    25    72     5
   24    25    73     5
   24    25    74     5
   72    25    73     5
   72    25    74     5
   73    25    74     5
   14    26    27     5
   26    27    28     5
   26    27    29     5
   28    27    29     5
   27    29    30     5
   27    29    75     5
   27    29    76     5
   30    29    75     5
   30    29    76     5
   75    29    76     5
   29    30    31     5
   29    30    77     5
   29    30    78     5
   31    30    77     5
   31    30    78     5
   77    30    78     5
   30    31    32     5
   30    31    79     5
   30    31    80     5
   32    31    79     5
   32    31    80     5
   79    31    80     5
   31    32    33     5
   31    32    81     5
   31    32    82     5
   33    32    81     5
   33    32    82     5
   81    32    82     5
   32    33    34     5
   32    33    83     5
   32    33    84     5
   34    33    83     5
   34    33    84     5
   83    33    84     5
   33    34    35     5
   33    34    85     5
   33    34    86     5
   35    34    85     5
   35    34    86     5
   85    34    86     5
   34    35    87     5
   34    35    88     5
   34    35    89     5
   87    35    88     5
   87    35    89     5
   88    35    89     5

[ dihedrals ]
; ai	aj	ak	al	funct	phi0	cp	mult
   36     1     2    39     9
   36     1     2    40     9
   37     1     2    39     9
   37     1     2    40     9
   38     1     2    39     9
   38     1     2    40     9
    3     2     1    36     9
    3     2     1    37     9
    3     2     1    38     9
    1     2     3     4     9
    1     2     3    41     9
    1     2     3    42     9
   39     2     3    41     9
   39     2     3    42     9
   40     2     3    41     9
   40     2     3    42     9
    4     3     2    39     9
    4     3     2    40     9
    2     3     4     5     9
    2     3     4    43     9
    2     3     4    44     9
   41     3     4    43     9
   41     3     4    44     9
   42     3     4    43     9
   42     3     4    44     9
    5     4     3    41     9
    5     4     3    42     9
    3     4     5     6     9
    3     4     5    45     9
    3     4     5    46     9
   43     4     5    45     9
   43     4     5    46     9
   44     4     5    45     9
   44     4     5    46     9
    6     5     4    43     9
    6     5     4    44     9
    4     5     6     7     9
    4     5     6    47     9
    4     5     6    48     9
   45     5     6    47     9
   45     5     6    48     9
   46     5     6    47     9
   46     5     6    48     9
    7     6     5    45     9
    7     6     5    46     9
    5     6     7     8     9
    5     6     7    49     9
    5     6     7    50     9
   47     6     7    49     9
   47     6     7    50     9
   48     6     7    49     9
   48     6     7    50     9
    8     7     6    47     9
    8     7     6    48     9
    6     7     8     9     9
    6     7     8    51     9
    6     7     8    52     9
   49     7     8    51     9
   49     7     8    52     9
   50     7     8    51     9
   50     7     8    52     9
    9     8     7    49     9
    9     8     7    50     9
    7     8     9    10     9
    7     8     9    53     9
    7     8     9    54     9
   51     8     9    53     9
   51     8     9    54     9
   52     8     9    53     9
   52     8     9    54     9
   10     9     8    51     9
   10     9     8    52     9
    8     9    10    11     9
    8     9    10    12     9
   11    10     9    53     9
   11    10     9    54     9
   12    10     9    53     9
   12    10     9    54     9
    9    10    12    13     9
   11    10    12    13     9
   10    12    13    14     9
   10    12    13    55     9
   10    12    13    56     9
   12    13    14    15     9
   12    13    14    26     9
   12    13    14    57     9
   55    13    14    57     9
   56    13    14    57     9
   15    14    13    55     9
   15    14    13    56     9
   26    14    13    55     9
   26    14    13    56     9
   13    14    15    16     9
   13    14    15    58     9
   13    14    15    59     9
   26    14    15    58     9
   26    14    15    59     9
   57    14    15    58     9
   57    14    15    59     9
   13    14    26    27     9
   15    14    26    27     9
   16    15    14    26     9
   16    15    14    57     9
   14    15    16    17     9
   17    16    15    58     9
   17    16    15    59     9
   15    16    17    18     9
   15    16    17    19     9
   16    17    19    20     9
   16    17    19    60     9
   16    17    19    61     9
   18    17    19    20     9
   18    17    19    60     9
   18    17    19    61     9
   17    19    20    21     9
   17    19    20    62     9
   17    19    20    63     9
   60    19    20    62     9
   60    19    20    63     9
   61    19    20    62     9
   61    19    20    63     9
   21    20    19    60     9
   21    20    19    61     9
   19    20    21    22     9
   19    20    21    64     9
   19    20    21    65     9
   62    20    21    64     9
   62    20    21    65     9
   63    20    21    64     9
   63    20    21    65     9
   22    21    20    62     9
   22    21    20    63     9
   20    21    22    23     9
   20    21    22    66     9
   20    21    22    67     9
   64    21    22    66     9
   64    21    22    67     9
   65    21    22    66     9
   65    21    22    67     9
   23    22    21    64     9
   23    22    21    65     9
   21    22    23    24     9
   21    22    23    68     9
   21    22    23    69     9
   66    22    23    68     9
   66    22    23    69     9
   67    22    23    68     9
   67    22    23    69     9
   24    23    22    66     9
   24    23    22    67     9
   22    23    24    25     9
   22    23    24    70     9
   22    23    24    71     9
   68    23    24    70     9
   68    23    24    71     9
   69    23    24    70     9
   69    23    24    71     9
   25    24    23    68     9
   25    24    23    69     9
   23    24    25    72     9
   23    24    25    73     9
   23    24    25    74     9
   70    24    25    72     9
   70    24    25    73     9
   70    24    25    74     9
   71    24    25    72     9
   71    24    25    73     9
   71    24    25    74     9
   27    26    14    57     9
   14    26    27    28     9
   14    26    27    29     9
   26    27    29    30     9
   26    27    29    75     9
   26    27    29    76     9
   28    27    29    30     9
   28    27    29    75     9
   28    27    29    76     9
   27    29    30    31     9
   27    29    30    77     9
   27    29    30    78     9
   75    29    30    77     9
   75    29    30    78     9
   76    29    30    77     9
   76    29    30    78     9
   31    30    29    75     9
   31    30    29    76     9
   29    30    31    32     9
   29    30    31    79     9
   29    30    31    80     9
   77    30    31    79     9
   77    30    31    80     9
   78    30    31    79     9
   78    30    31    80     9
   32    31    30    77     9
   32    31    30    78     9
   30    31    32    33     9
   30    31    32    81     9
   30    31    32    82     9
   79    31    32    81     9
   79    31    32    82     9
   80    31    32    81     9
   80    31    32    82     9
   33    32    31    79     9
   33    32    31    80     9
   31    32    33    34     9
   31    32    33    83     9
   31    32    33    84     9
   81    32    33    83     9
   81    32    33    84     9
   82    32    33    83     9
   82    32    33    84     9
   34    33    32    81     9
   34    33    32    82     9
   32    33    34    35     9
   32    33    34    85     9
   32    33    34    86     9
   83    33    34    85     9
   83    33    34    86     9
   84    33    34    85     9
   84    33    34    86     9
   35    34    33    83     9
   35    34    33    84     9
   33    34    35    87     9
   33    34    35    88     9
   33    34    35    89     9
   85    34    35    87     9
   85    34    35    88     9
   85    34    35    89     9
   86    34    35    87     9
   86    34    35    88     9
   86    34    35    89     9

[ dihedrals ]
; ai	aj	ak	al	funct	q0	cq
   10     9    11    12     2
   17    19    18    16     2
   27    29    28    26     2


