; AUTOGENERATED EXTENDED TOPOLOGY FOR PB100-PEO50
; Generated by build_top.py from pb22peo14.itp
[ moleculetype ] 
; Name 		  nrexcl 
 mol_01    3 
 
[ atoms ]        
;   319 atoms
     1       HGA3      1 BDE    H15         1      0.0900      1.0079 
     2       HGA3      1 BDE    H16         2      0.0900      1.0079 
     3       HGA3      1 BDE    H17         3      0.0900      1.0079 
     4      CG331      1 BDE    C10         4     -0.2700     12.0110 
     5      CG311      1 BDE    C5          5     -0.0910     12.0110 
     6      CG2D1      1 BDE    C6          6     -0.1450     12.0110 
     7      CG2D2      1 BDE    C7          7     -0.4210     12.0110 
     8      CG321      1 BDE    C8          8     -0.1830     12.0110 
     9       HGA1      1 BDE    H8          9      0.0900      1.0079 
    10       HGA4      1 BDE    H9         10      0.1500      1.0079 
    11       HGA5      1 BDE    H10        11      0.2100      1.0079 
    12       HGA5      1 BDE    H11        12      0.2100      1.0079 
    13       HGA2      1 BDE    H12        13      0.0900      1.0079 
    14       HGA2      1 BDE    H13        14      0.0900      1.0079 
    15      CG311      2 BDE    C5         15     -0.0910     12.0110 
    16      CG2D1      2 BDE    C6         16     -0.1450     12.0110 
    17      CG2D2      2 BDE    C7         17     -0.4210     12.0110 
    18      CG321      2 BDE    C8         18     -0.1830     12.0110 
    19       HGA1      2 BDE    H8         19      0.0900      1.0079 
    20       HGA4      2 BDE    H9         20      0.1500      1.0079 
    21       HGA5      2 BDE    H10        21      0.2100      1.0079 
    22       HGA5      2 BDE    H11        22      0.2100      1.0079 
    23       HGA2      2 BDE    H12        23      0.0900      1.0079 
    24       HGA2      2 BDE    H13        24      0.0900      1.0079 
    25      CG311      3 BDE    C5         25     -0.0910     12.0110 
    26      CG2D1      3 BDE    C6         26     -0.1450     12.0110 
    27      CG2D2      3 BDE    C7         27     -0.4210     12.0110 
    28      CG321      3 BDE    C8         28     -0.1830     12.0110 
    29       HGA1      3 BDE    H8         29      0.0900      1.0079 
    30       HGA4      3 BDE    H9         30      0.1500      1.0079 
    31       HGA5      3 BDE    H10        31      0.2100      1.0079 
    32       HGA5      3 BDE    H11        32      0.2100      1.0079 
    33       HGA2      3 BDE    H12        33      0.0900      1.0079 
    34       HGA2      3 BDE    H13        34      0.0900      1.0079 
    35      CG311      4 BDE    C5         35     -0.0910     12.0110 
    36      CG2D1      4 BDE    C6         36     -0.1450     12.0110 
    37      CG2D2      4 BDE    C7         37     -0.4210     12.0110 
    38      CG321      4 BDE    C8         38     -0.1830     12.0110 
    39       HGA1      4 BDE    H8         39      0.0900      1.0079 
    40       HGA4      4 BDE    H9         40      0.1500      1.0079 
    41       HGA5      4 BDE    H10        41      0.2100      1.0079 
    42       HGA5      4 BDE    H11        42      0.2100      1.0079 
    43       HGA2      4 BDE    H12        43      0.0900      1.0079 
    44       HGA2      4 BDE    H13        44      0.0900      1.0079 
    45      CG311      5 BDE    C5         45     -0.0910     12.0110 
    46      CG2D1      5 BDE    C6         46     -0.1450     12.0110 
    47      CG2D2      5 BDE    C7         47     -0.4210     12.0110 
    48      CG321      5 BDE    C8         48     -0.1830     12.0110 
    49       HGA1      5 BDE    H8         49      0.0900      1.0079 
    50       HGA4      5 BDE    H9         50      0.1500      1.0079 
    51       HGA5      5 BDE    H10        51      0.2100      1.0079 
    52       HGA5      5 BDE    H11        52      0.2100      1.0079 
    53       HGA2      5 BDE    H12        53      0.0900      1.0079 
    54       HGA2      5 BDE    H13        54      0.0900      1.0079 
    55      CG311      6 BDE    C5         55     -0.0910     12.0110 
    56      CG2D1      6 BDE    C6         56     -0.1450     12.0110 
    57      CG2D2      6 BDE    C7         57     -0.4210     12.0110 
    58      CG321      6 BDE    C8         58     -0.1830     12.0110 
    59       HGA1      6 BDE    H8         59      0.0900      1.0079 
    60       HGA4      6 BDE    H9         60      0.1500      1.0079 
    61       HGA5      6 BDE    H10        61      0.2100      1.0079 
    62       HGA5      6 BDE    H11        62      0.2100      1.0079 
    63       HGA2      6 BDE    H12        63      0.0900      1.0079 
    64       HGA2      6 BDE    H13        64      0.0900      1.0079 
    65      CG311      7 BDE    C5         65     -0.0910     12.0110 
    66      CG2D1      7 BDE    C6         66     -0.1450     12.0110 
    67      CG2D2      7 BDE    C7         67     -0.4210     12.0110 
    68      CG321      7 BDE    C8         68     -0.1830     12.0110 
    69       HGA1      7 BDE    H8         69      0.0900      1.0079 
    70       HGA4      7 BDE    H9         70      0.1500      1.0079 
    71       HGA5      7 BDE    H10        71      0.2100      1.0079 
    72       HGA5      7 BDE    H11        72      0.2100      1.0079 
    73       HGA2      7 BDE    H12        73      0.0900      1.0079 
    74       HGA2      7 BDE    H13        74      0.0900      1.0079 
    75      CG311      8 BDE    C5         75     -0.0910     12.0110 
    76      CG2D1      8 BDE    C6         76     -0.1450     12.0110 
    77      CG2D2      8 BDE    C7         77     -0.4210     12.0110 
    78      CG321      8 BDE    C8         78     -0.1830     12.0110 
    79       HGA1      8 BDE    H8         79      0.0900      1.0079 
    80       HGA4      8 BDE    H9         80      0.1500      1.0079 
    81       HGA5      8 BDE    H10        81      0.2100      1.0079 
    82       HGA5      8 BDE    H11        82      0.2100      1.0079 
    83       HGA2      8 BDE    H12        83      0.0900      1.0079 
    84       HGA2      8 BDE    H13        84      0.0900      1.0079 
    85      CG311      9 BDE    C5         85     -0.0910     12.0110 
    86      CG2D1      9 BDE    C6         86     -0.1450     12.0110 
    87      CG2D2      9 BDE    C7         87     -0.4210     12.0110 
    88      CG321      9 BDE    C8         88     -0.1830     12.0110 
    89       HGA1      9 BDE    H8         89      0.0900      1.0079 
    90       HGA4      9 BDE    H9         90      0.1500      1.0079 
    91       HGA5      9 BDE    H10        91      0.2100      1.0079 
    92       HGA5      9 BDE    H11        92      0.2100      1.0079 
    93       HGA2      9 BDE    H12        93      0.0900      1.0079 
    94       HGA2      9 BDE    H13        94      0.0900      1.0079 
    95      CG311     10 BDE    C5         95     -0.0910     12.0110 
    96      CG2D1     10 BDE    C6         96     -0.1450     12.0110 
    97      CG2D2     10 BDE    C7         97     -0.4210     12.0110 
    98      CG321     10 BDE    C8         98     -0.1830     12.0110 
    99       HGA1     10 BDE    H8         99      0.0900      1.0079 
   100       HGA4     10 BDE    H9        100      0.1500      1.0079 
   101       HGA5     10 BDE    H10       101      0.2100      1.0079 
   102       HGA5     10 BDE    H11       102      0.2100      1.0079 
   103       HGA2     10 BDE    H12       103      0.0900      1.0079 
   104       HGA2     10 BDE    H13       104      0.0900      1.0079 
   105      CG311     11 BDE    C5        105     -0.0910     12.0110 
   106      CG2D1     11 BDE    C6        106     -0.1450     12.0110 
   107      CG2D2     11 BDE    C7        107     -0.4210     12.0110 
   108      CG321     11 BDE    C8        108     -0.1830     12.0110 
   109       HGA1     11 BDE    H8        109      0.0900      1.0079 
   110       HGA4     11 BDE    H9        110      0.1500      1.0079 
   111       HGA5     11 BDE    H10       111      0.2100      1.0079 
   112       HGA5     11 BDE    H11       112      0.2100      1.0079 
   113       HGA2     11 BDE    H12       113      0.0900      1.0079 
   114       HGA2     11 BDE    H13       114      0.0900      1.0079 
   115      CG311     12 BDE    C5        115     -0.0910     12.0110 
   116      CG2D1     12 BDE    C6        116     -0.1450     12.0110 
   117      CG2D2     12 BDE    C7        117     -0.4210     12.0110 
   118      CG321     12 BDE    C8        118     -0.1830     12.0110 
   119       HGA1     12 BDE    H8        119      0.0900      1.0079 
   120       HGA4     12 BDE    H9        120      0.1500      1.0079 
   121       HGA5     12 BDE    H10       121      0.2100      1.0079 
   122       HGA5     12 BDE    H11       122      0.2100      1.0079 
   123       HGA2     12 BDE    H12       123      0.0900      1.0079 
   124       HGA2     12 BDE    H13       124      0.0900      1.0079 
   125      CG311     13 BDE    C5        125     -0.0910     12.0110 
   126      CG2D1     13 BDE    C6        126     -0.1450     12.0110 
   127      CG2D2     13 BDE    C7        127     -0.4210     12.0110 
   128      CG321     13 BDE    C8        128     -0.1830     12.0110 
   129       HGA1     13 BDE    H8        129      0.0900      1.0079 
   130       HGA4     13 BDE    H9        130      0.1500      1.0079 
   131       HGA5     13 BDE    H10       131      0.2100      1.0079 
   132       HGA5     13 BDE    H11       132      0.2100      1.0079 
   133       HGA2     13 BDE    H12       133      0.0900      1.0079 
   134       HGA2     13 BDE    H13       134      0.0900      1.0079 
   135      CG311     14 BDE    C5        135     -0.0910     12.0110 
   136      CG2D1     14 BDE    C6        136     -0.1450     12.0110 
   137      CG2D2     14 BDE    C7        137     -0.4210     12.0110 
   138      CG321     14 BDE    C8        138     -0.1830     12.0110 
   139       HGA1     14 BDE    H8        139      0.0900      1.0079 
   140       HGA4     14 BDE    H9        140      0.1500      1.0079 
   141       HGA5     14 BDE    H10       141      0.2100      1.0079 
   142       HGA5     14 BDE    H11       142      0.2100      1.0079 
   143       HGA2     14 BDE    H12       143      0.0900      1.0079 
   144       HGA2     14 BDE    H13       144      0.0900      1.0079 
   145      CG311     15 BDE    C5        145     -0.0910     12.0110 
   146      CG2D1     15 BDE    C6        146     -0.1450     12.0110 
   147      CG2D2     15 BDE    C7        147     -0.4210     12.0110 
   148      CG321     15 BDE    C8        148     -0.1830     12.0110 
   149       HGA1     15 BDE    H8        149      0.0900      1.0079 
   150       HGA4     15 BDE    H9        150      0.1500      1.0079 
   151       HGA5     15 BDE    H10       151      0.2100      1.0079 
   152       HGA5     15 BDE    H11       152      0.2100      1.0079 
   153       HGA2     15 BDE    H12       153      0.0900      1.0079 
   154       HGA2     15 BDE    H13       154      0.0900      1.0079 
   155      CG311     16 BDE    C5        155     -0.0910     12.0110 
   156      CG2D1     16 BDE    C6        156     -0.1450     12.0110 
   157      CG2D2     16 BDE    C7        157     -0.4210     12.0110 
   158      CG321     16 BDE    C8        158     -0.1830     12.0110 
   159       HGA1     16 BDE    H8        159      0.0900      1.0079 
   160       HGA4     16 BDE    H9        160      0.1500      1.0079 
   161       HGA5     16 BDE    H10       161      0.2100      1.0079 
   162       HGA5     16 BDE    H11       162      0.2100      1.0079 
   163       HGA2     16 BDE    H12       163      0.0900      1.0079 
   164       HGA2     16 BDE    H13       164      0.0900      1.0079 
   165      CG311     17 BDE    C5        165     -0.0910     12.0110 
   166      CG2D1     17 BDE    C6        166     -0.1450     12.0110 
   167      CG2D2     17 BDE    C7        167     -0.4210     12.0110 
   168      CG321     17 BDE    C8        168     -0.1830     12.0110 
   169       HGA1     17 BDE    H8        169      0.0900      1.0079 
   170       HGA4     17 BDE    H9        170      0.1500      1.0079 
   171       HGA5     17 BDE    H10       171      0.2100      1.0079 
   172       HGA5     17 BDE    H11       172      0.2100      1.0079 
   173       HGA2     17 BDE    H12       173      0.0900      1.0079 
   174       HGA2     17 BDE    H13       174      0.0900      1.0079 
   175      CG311     18 BDE    C5        175     -0.0910     12.0110 
   176      CG2D1     18 BDE    C6        176     -0.1450     12.0110 
   177      CG2D2     18 BDE    C7        177     -0.4210     12.0110 
   178      CG321     18 BDE    C8        178     -0.1830     12.0110 
   179       HGA1     18 BDE    H8        179      0.0900      1.0079 
   180       HGA4     18 BDE    H9        180      0.1500      1.0079 
   181       HGA5     18 BDE    H10       181      0.2100      1.0079 
   182       HGA5     18 BDE    H11       182      0.2100      1.0079 
   183       HGA2     18 BDE    H12       183      0.0900      1.0079 
   184       HGA2     18 BDE    H13       184      0.0900      1.0079 
   185      CG311     19 BDE    C5        185     -0.0910     12.0110 
   186      CG2D1     19 BDE    C6        186     -0.1450     12.0110 
   187      CG2D2     19 BDE    C7        187     -0.4210     12.0110 
   188      CG321     19 BDE    C8        188     -0.1830     12.0110 
   189       HGA1     19 BDE    H8        189      0.0900      1.0079 
   190       HGA4     19 BDE    H9        190      0.1500      1.0079 
   191       HGA5     19 BDE    H10       191      0.2100      1.0079 
   192       HGA5     19 BDE    H11       192      0.2100      1.0079 
   193       HGA2     19 BDE    H12       193      0.0900      1.0079 
   194       HGA2     19 BDE    H13       194      0.0900      1.0079 
   195      CG311     20 BDE    C5        195     -0.0910     12.0110 
   196      CG2D1     20 BDE    C6        196     -0.1450     12.0110 
   197      CG2D2     20 BDE    C7        197     -0.4210     12.0110 
   198      CG321     20 BDE    C8        198     -0.1830     12.0110 
   199       HGA1     20 BDE    H8        199      0.0900      1.0079 
   200       HGA4     20 BDE    H9        200      0.1500      1.0079 
   201       HGA5     20 BDE    H10       201      0.2100      1.0079 
   202       HGA5     20 BDE    H11       202      0.2100      1.0079 
   203       HGA2     20 BDE    H12       203      0.0900      1.0079 
   204       HGA2     20 BDE    H13       204      0.0900      1.0079 
   205      CG311     21 BDE    C5        205     -0.0910     12.0110 
   206      CG2D1     21 BDE    C6        206     -0.1450     12.0110 
   207      CG2D2     21 BDE    C7        207     -0.4210     12.0110 
   208      CG321     21 BDE    C8        208     -0.1830     12.0110 
   209       HGA1     21 BDE    H8        209      0.0900      1.0079 
   210       HGA4     21 BDE    H9        210      0.1500      1.0079 
   211       HGA5     21 BDE    H10       211      0.2100      1.0079 
   212       HGA5     21 BDE    H11       212      0.2100      1.0079 
   213       HGA2     21 BDE    H12       213      0.0900      1.0079 
   214       HGA2     21 BDE    H13       214      0.0900      1.0079 
   215      CG311     22 BDE    C5        215     -0.0910     12.0110 
   216      CG2D1     22 BDE    C6        216     -0.1450     12.0110 
   217      CG2D2     22 BDE    C7        217     -0.4210     12.0110 
   218      CG321     22 BDE    C8        218     -0.1830     12.0110 
   219       HGA1     22 BDE    H8        219      0.0900      1.0079 
   220       HGA4     22 BDE    H9        220      0.0900      1.0080 
   221       HGA5     22 BDE    H10       221      0.2100      1.0079 
   222       HGA5     22 BDE    H11       222      0.2100      1.0079 
   223       HGA2     22 BDE    H12       223      0.0900      1.0079 
   224       HGA2     22 BDE    H13       224      0.0900      1.0079 
   225      CG321      1 PEGM   C2        225     -0.1200     12.0110 
   226       HGA2      1 PEGM   H21       226      0.0900      1.0080 
   227       HGA2      1 PEGM   H22       227      0.0900      1.0080 
   228      CG321      2 PEGM   C1        228     -0.0100     12.0110 
   229       HGA2      2 PEGM   H12       229      0.0900      1.0080 
   230       HGA2      2 PEGM   H11       230      0.0900      1.0080 
   231      OG301      2 PEGM   O1        231     -0.3400     15.9994 
   232      CG321      2 PEGM   C2        232     -0.0100     12.0110 
   233       HGA2      2 PEGM   H21       233      0.0900      1.0080 
   234       HGA2      2 PEGM   H22       234      0.0900      1.0080 
   235      CG321      3 PEGM   C1        235     -0.0100     12.0110 
   236       HGA2      3 PEGM   H12       236      0.0900      1.0080 
   237       HGA2      3 PEGM   H11       237      0.0900      1.0080 
   238      OG301      3 PEGM   O1        238     -0.3400     15.9994 
   239      CG321      3 PEGM   C2        239     -0.0100     12.0110 
   240       HGA2      3 PEGM   H21       240      0.0900      1.0080 
   241       HGA2      3 PEGM   H22       241      0.0900      1.0080 
   242      CG321      4 PEGM   C1        242     -0.0100     12.0110 
   243       HGA2      4 PEGM   H12       243      0.0900      1.0080 
   244       HGA2      4 PEGM   H11       244      0.0900      1.0080 
   245      OG301      4 PEGM   O1        245     -0.3400     15.9994 
   246      CG321      4 PEGM   C2        246     -0.0100     12.0110 
   247       HGA2      4 PEGM   H21       247      0.0900      1.0080 
   248       HGA2      4 PEGM   H22       248      0.0900      1.0080 
   249      CG321      5 PEGM   C1        249     -0.0100     12.0110 
   250       HGA2      5 PEGM   H12       250      0.0900      1.0080 
   251       HGA2      5 PEGM   H11       251      0.0900      1.0080 
   252      OG301      5 PEGM   O1        252     -0.3400     15.9994 
   253      CG321      5 PEGM   C2        253     -0.0100     12.0110 
   254       HGA2      5 PEGM   H21       254      0.0900      1.0080 
   255       HGA2      5 PEGM   H22       255      0.0900      1.0080 
   256      CG321      6 PEGM   C1        256     -0.0100     12.0110 
   257       HGA2      6 PEGM   H12       257      0.0900      1.0080 
   258       HGA2      6 PEGM   H11       258      0.0900      1.0080 
   259      OG301      6 PEGM   O1        259     -0.3400     15.9994 
   260      CG321      6 PEGM   C2        260     -0.0100     12.0110 
   261       HGA2      6 PEGM   H21       261      0.0900      1.0080 
   262       HGA2      6 PEGM   H22       262      0.0900      1.0080 
   263      CG321      7 PEGM   C1        263     -0.0100     12.0110 
   264       HGA2      7 PEGM   H12       264      0.0900      1.0080 
   265       HGA2      7 PEGM   H11       265      0.0900      1.0080 
   266      OG301      7 PEGM   O1        266     -0.3400     15.9994 
   267      CG321      7 PEGM   C2        267     -0.0100     12.0110 
   268       HGA2      7 PEGM   H21       268      0.0900      1.0080 
   269       HGA2      7 PEGM   H22       269      0.0900      1.0080 
   270      CG321      8 PEGM   C1        270     -0.0100     12.0110 
   271       HGA2      8 PEGM   H12       271      0.0900      1.0080 
   272       HGA2      8 PEGM   H11       272      0.0900      1.0080 
   273      OG301      8 PEGM   O1        273     -0.3400     15.9994 
   274      CG321      8 PEGM   C2        274     -0.0100     12.0110 
   275       HGA2      8 PEGM   H21       275      0.0900      1.0080 
   276       HGA2      8 PEGM   H22       276      0.0900      1.0080 
   277      CG321      9 PEGM   C1        277     -0.0100     12.0110 
   278       HGA2      9 PEGM   H12       278      0.0900      1.0080 
   279       HGA2      9 PEGM   H11       279      0.0900      1.0080 
   280      OG301      9 PEGM   O1        280     -0.3400     15.9994 
   281      CG321      9 PEGM   C2        281     -0.0100     12.0110 
   282       HGA2      9 PEGM   H21       282      0.0900      1.0080 
   283       HGA2      9 PEGM   H22       283      0.0900      1.0080 
   284      CG321     10 PEGM   C1        284     -0.0100     12.0110 
   285       HGA2     10 PEGM   H12       285      0.0900      1.0080 
   286       HGA2     10 PEGM   H11       286      0.0900      1.0080 
   287      OG301     10 PEGM   O1        287     -0.3400     15.9994 
   288      CG321     10 PEGM   C2        288     -0.0100     12.0110 
   289       HGA2     10 PEGM   H21       289      0.0900      1.0080 
   290       HGA2     10 PEGM   H22       290      0.0900      1.0080 
   291      CG321     11 PEGM   C1        291     -0.0100     12.0110 
   292       HGA2     11 PEGM   H12       292      0.0900      1.0080 
   293       HGA2     11 PEGM   H11       293      0.0900      1.0080 
   294      OG301     11 PEGM   O1        294     -0.3400     15.9994 
   295      CG321     11 PEGM   C2        295     -0.0100     12.0110 
   296       HGA2     11 PEGM   H21       296      0.0900      1.0080 
   297       HGA2     11 PEGM   H22       297      0.0900      1.0080 
   298      CG321     12 PEGM   C1        298     -0.0100     12.0110 
   299       HGA2     12 PEGM   H12       299      0.0900      1.0080 
   300       HGA2     12 PEGM   H11       300      0.0900      1.0080 
   301      OG301     12 PEGM   O1        301     -0.3400     15.9994 
   302      CG321     12 PEGM   C2        302     -0.0100     12.0110 
   303       HGA2     12 PEGM   H21       303      0.0900      1.0080 
   304       HGA2     12 PEGM   H22       304      0.0900      1.0080 
   305      CG321     13 PEGM   C1        305     -0.0100     12.0110 
   306       HGA2     13 PEGM   H12       306      0.0900      1.0080 
   307       HGA2     13 PEGM   H11       307      0.0900      1.0080 
   308      OG301     13 PEGM   O1        308     -0.3400     15.9994 
   309      CG321     13 PEGM   C2        309     -0.0100     12.0110 
   310       HGA2     13 PEGM   H21       310      0.0900      1.0080 
   311       HGA2     13 PEGM   H22       311      0.0900      1.0080 
   312       HGA3     14 PEGM   H23       312      0.0900      1.0080 
   313      CG321     14 PEGM   C1        313     -0.0100     12.0110 
   314       HGA2     14 PEGM   H12       314      0.0900      1.0080 
   315       HGA2     14 PEGM   H11       315      0.0900      1.0080 
   316      OG301     14 PEGM   O1        316     -0.3400     15.9994 
   317      CG331     14 PEGM   C2        317     -0.1000     12.0110 
   318       HGA3     14 PEGM   H21       318      0.0900      1.0080 
   319       HGA3     14 PEGM   H22       319      0.0900      1.0080 
        
[ bonds ]        
;   318 bonds
  4    1   1
  4    2   1
  4    3   1
  4    5   1
  5    6   1
  5    8   1
  5    9   1
  6    7   1
  6   10   1
  7   11   1
  7   12   1
  8   13   1
  8   14   1
 15   16   1
 15   18   1
 15   19   1
 16   17   1
 16   20   1
 17   21   1
 17   22   1
 18   23   1
 18   24   1
 18    5   1
 25   26   1
 25   28   1
 25   29   1
 26   27   1
 26   30   1
 27   31   1
 27   32   1
 28   33   1
 28   34   1
 28   15   1
 35   36   1
 35   38   1
 35   39   1
 36   37   1
 36   40   1
 37   41   1
 37   42   1
 38   43   1
 38   44   1
 38   25   1
 45   46   1
 45   48   1
 45   49   1
 46   47   1
 46   50   1
 47   51   1
 47   52   1
 48   53   1
 48   54   1
 48   35   1
 55   56   1
 55   58   1
 55   59   1
 56   57   1
 56   60   1
 57   61   1
 57   62   1
 58   63   1
 58   64   1
 58   45   1
 65   66   1
 65   68   1
 65   69   1
 66   67   1
 66   70   1
 67   71   1
 67   72   1
 68   73   1
 68   74   1
 68   55   1
 75   76   1
 75   78   1
 75   79   1
 76   77   1
 76   80   1
 77   81   1
 77   82   1
 78   83   1
 78   84   1
 78   65   1
 85   86   1
 85   88   1
 85   89   1
 86   87   1
 86   90   1
 87   91   1
 87   92   1
 88   93   1
 88   94   1
 88   75   1
 95   96   1
 95   98   1
 95   99   1
 96   97   1
 96  100   1
 97  101   1
 97  102   1
 98  103   1
 98  104   1
 98   85   1
105  106   1
105  108   1
105  109   1
106  107   1
106  110   1
107  111   1
107  112   1
108  113   1
108  114   1
108   95   1
115  116   1
115  118   1
115  119   1
116  117   1
116  120   1
117  121   1
117  122   1
118  123   1
118  124   1
118  105   1
125  126   1
125  128   1
125  129   1
126  127   1
126  130   1
127  131   1
127  132   1
128  133   1
128  134   1
128  115   1
135  136   1
135  138   1
135  139   1
136  137   1
136  140   1
137  141   1
137  142   1
138  143   1
138  144   1
138  125   1
145  146   1
145  148   1
145  149   1
146  147   1
146  150   1
147  151   1
147  152   1
148  153   1
148  154   1
148  135   1
155  156   1
155  158   1
155  159   1
156  157   1
156  160   1
157  161   1
157  162   1
158  163   1
158  164   1
158  145   1
165  166   1
165  168   1
165  169   1
166  167   1
166  170   1
167  171   1
167  172   1
168  173   1
168  174   1
168  155   1
175  176   1
175  178   1
175  179   1
176  177   1
176  180   1
177  181   1
177  182   1
178  183   1
178  184   1
178  165   1
185  186   1
185  188   1
185  189   1
186  187   1
186  190   1
187  191   1
187  192   1
188  193   1
188  194   1
188  175   1
195  196   1
195  198   1
195  199   1
196  197   1
196  200   1
197  201   1
197  202   1
198  203   1
198  204   1
198  185   1
205  206   1
205  208   1
205  209   1
206  207   1
206  210   1
207  211   1
207  212   1
208  213   1
208  214   1
208  195   1
215  225   1
215  216   1
215  218   1
215  219   1
216  217   1
216  220   1
217  221   1
217  222   1
218  223   1
218  224   1
218  205   1
225  226   1
225  227   1
228  230   1
228  229   1
228  231   1
228  225   1
231  232   1
232  233   1
232  234   1
235  237   1
235  236   1
235  238   1
235  232   1
238  239   1
239  240   1
239  241   1
242  244   1
242  243   1
242  245   1
242  239   1
245  246   1
246  247   1
246  248   1
249  251   1
249  250   1
249  252   1
249  246   1
252  253   1
253  254   1
253  255   1
256  258   1
256  257   1
256  259   1
256  253   1
259  260   1
260  261   1
260  262   1
263  265   1
263  264   1
263  266   1
263  260   1
266  267   1
267  268   1
267  269   1
270  272   1
270  271   1
270  273   1
270  267   1
273  274   1
274  275   1
274  276   1
277  279   1
277  278   1
277  280   1
277  274   1
280  281   1
281  282   1
281  283   1
284  286   1
284  285   1
284  287   1
284  281   1
287  288   1
288  289   1
288  290   1
291  293   1
291  292   1
291  294   1
291  288   1
294  295   1
295  296   1
295  297   1
298  300   1
298  299   1
298  301   1
298  295   1
301  302   1
302  303   1
302  304   1
305  307   1
305  306   1
305  308   1
305  302   1
308  309   1
309  310   1
309  311   1
312  317   1
313  315   1
313  314   1
313  316   1
313  309   1
316  317   1
317  318   1
317  319   1
        
[ pairs ]        
;   827 pairs
  1   6   1
  1   8   1
  1   9   1
  1  18   1
  2   6   1
  2   8   1
  2   9   1
  2  18   1
  3   6   1
  3   8   1
  3   9   1
  3  18   1
  4   7   1
  4  10   1
  4  13   1
  4  14   1
  4  15   1
  4  23   1
  4  24   1
  5  16   1
  5  19   1
  5  28   1
  5  11   1
  5  12   1
  6  13   1
  6  14   1
  6  15   1
  6  23   1
  6  24   1
  7   8   1
  7   9   1
  7  18   1
  8  10   1
  8  15   1
  8  23   1
  8  24   1
  9  10   1
  9  13   1
  9  14   1
  9  15   1
  9  23   1
  9  24   1
 10  18   1
 10  11   1
 10  12   1
 13  18   1
 14  18   1
 15  26   1
 15  29   1
 15  38   1
 15  21   1
 15  22   1
 16  23   1
 16  24   1
 16  25   1
 16  33   1
 16  34   1
 17  18   1
 17  19   1
 17  28   1
 18  20   1
 18  25   1
 18  33   1
 18  34   1
 19  20   1
 19  23   1
 19  24   1
 19  25   1
 19  33   1
 19  34   1
 20  28   1
 20  21   1
 20  22   1
 23  28   1
 24  28   1
 25  36   1
 25  39   1
 25  48   1
 25  31   1
 25  32   1
 26  33   1
 26  34   1
 26  35   1
 26  43   1
 26  44   1
 27  28   1
 27  29   1
 27  38   1
 28  30   1
 28  35   1
 28  43   1
 28  44   1
 29  30   1
 29  33   1
 29  34   1
 29  35   1
 29  43   1
 29  44   1
 30  38   1
 30  31   1
 30  32   1
 33  38   1
 34  38   1
 35  46   1
 35  49   1
 35  58   1
 35  41   1
 35  42   1
 36  43   1
 36  44   1
 36  45   1
 36  53   1
 36  54   1
 37  38   1
 37  39   1
 37  48   1
 38  40   1
 38  45   1
 38  53   1
 38  54   1
 39  40   1
 39  43   1
 39  44   1
 39  45   1
 39  53   1
 39  54   1
 40  48   1
 40  41   1
 40  42   1
 43  48   1
 44  48   1
 45  56   1
 45  59   1
 45  68   1
 45  51   1
 45  52   1
 46  53   1
 46  54   1
 46  55   1
 46  63   1
 46  64   1
 47  48   1
 47  49   1
 47  58   1
 48  50   1
 48  55   1
 48  63   1
 48  64   1
 49  50   1
 49  53   1
 49  54   1
 49  55   1
 49  63   1
 49  64   1
 50  58   1
 50  51   1
 50  52   1
 53  58   1
 54  58   1
 55  66   1
 55  69   1
 55  78   1
 55  61   1
 55  62   1
 56  63   1
 56  64   1
 56  65   1
 56  73   1
 56  74   1
 57  58   1
 57  59   1
 57  68   1
 58  60   1
 58  65   1
 58  73   1
 58  74   1
 59  60   1
 59  63   1
 59  64   1
 59  65   1
 59  73   1
 59  74   1
 60  68   1
 60  61   1
 60  62   1
 63  68   1
 64  68   1
 65  76   1
 65  79   1
 65  88   1
 65  71   1
 65  72   1
 66  73   1
 66  74   1
 66  75   1
 66  83   1
 66  84   1
 67  68   1
 67  69   1
 67  78   1
 68  70   1
 68  75   1
 68  83   1
 68  84   1
 69  70   1
 69  73   1
 69  74   1
 69  75   1
 69  83   1
 69  84   1
 70  78   1
 70  71   1
 70  72   1
 73  78   1
 74  78   1
 75  86   1
 75  89   1
 75  98   1
 75  81   1
 75  82   1
 76  83   1
 76  84   1
 76  85   1
 76  93   1
 76  94   1
 77  78   1
 77  79   1
 77  88   1
 78  80   1
 78  85   1
 78  93   1
 78  94   1
 79  80   1
 79  83   1
 79  84   1
 79  85   1
 79  93   1
 79  94   1
 80  88   1
 80  81   1
 80  82   1
 83  88   1
 84  88   1
 85  96   1
 85  99   1
 85 108   1
 85  91   1
 85  92   1
 86  93   1
 86  94   1
 86  95   1
 86 103   1
 86 104   1
 87  88   1
 87  89   1
 87  98   1
 88  90   1
 88  95   1
 88 103   1
 88 104   1
 89  90   1
 89  93   1
 89  94   1
 89  95   1
 89 103   1
 89 104   1
 90  98   1
 90  91   1
 90  92   1
 93  98   1
 94  98   1
 95 106   1
 95 109   1
 95 118   1
 95 101   1
 95 102   1
 96 103   1
 96 104   1
 96 105   1
 96 113   1
 96 114   1
 97  98   1
 97  99   1
 97 108   1
 98 100   1
 98 105   1
 98 113   1
 98 114   1
 99 100   1
 99 103   1
 99 104   1
 99 105   1
 99 113   1
 99 114   1
100 108   1
100 101   1
100 102   1
103 108   1
104 108   1
105 116   1
105 119   1
105 128   1
105 111   1
105 112   1
106 113   1
106 114   1
106 115   1
106 123   1
106 124   1
107 108   1
107 109   1
107 118   1
108 110   1
108 115   1
108 123   1
108 124   1
109 110   1
109 113   1
109 114   1
109 115   1
109 123   1
109 124   1
110 118   1
110 111   1
110 112   1
113 118   1
114 118   1
115 126   1
115 129   1
115 138   1
115 121   1
115 122   1
116 123   1
116 124   1
116 125   1
116 133   1
116 134   1
117 118   1
117 119   1
117 128   1
118 120   1
118 125   1
118 133   1
118 134   1
119 120   1
119 123   1
119 124   1
119 125   1
119 133   1
119 134   1
120 128   1
120 121   1
120 122   1
123 128   1
124 128   1
125 136   1
125 139   1
125 148   1
125 131   1
125 132   1
126 133   1
126 134   1
126 135   1
126 143   1
126 144   1
127 128   1
127 129   1
127 138   1
128 130   1
128 135   1
128 143   1
128 144   1
129 130   1
129 133   1
129 134   1
129 135   1
129 143   1
129 144   1
130 138   1
130 131   1
130 132   1
133 138   1
134 138   1
135 146   1
135 149   1
135 158   1
135 141   1
135 142   1
136 143   1
136 144   1
136 145   1
136 153   1
136 154   1
137 138   1
137 139   1
137 148   1
138 140   1
138 145   1
138 153   1
138 154   1
139 140   1
139 143   1
139 144   1
139 145   1
139 153   1
139 154   1
140 148   1
140 141   1
140 142   1
143 148   1
144 148   1
145 156   1
145 159   1
145 168   1
145 151   1
145 152   1
146 153   1
146 154   1
146 155   1
146 163   1
146 164   1
147 148   1
147 149   1
147 158   1
148 150   1
148 155   1
148 163   1
148 164   1
149 150   1
149 153   1
149 154   1
149 155   1
149 163   1
149 164   1
150 158   1
150 151   1
150 152   1
153 158   1
154 158   1
155 166   1
155 169   1
155 178   1
155 161   1
155 162   1
156 163   1
156 164   1
156 165   1
156 173   1
156 174   1
157 158   1
157 159   1
157 168   1
158 160   1
158 165   1
158 173   1
158 174   1
159 160   1
159 163   1
159 164   1
159 165   1
159 173   1
159 174   1
160 168   1
160 161   1
160 162   1
163 168   1
164 168   1
165 176   1
165 179   1
165 188   1
165 171   1
165 172   1
166 173   1
166 174   1
166 175   1
166 183   1
166 184   1
167 168   1
167 169   1
167 178   1
168 170   1
168 175   1
168 183   1
168 184   1
169 170   1
169 173   1
169 174   1
169 175   1
169 183   1
169 184   1
170 178   1
170 171   1
170 172   1
173 178   1
174 178   1
175 186   1
175 189   1
175 198   1
175 181   1
175 182   1
176 183   1
176 184   1
176 185   1
176 193   1
176 194   1
177 178   1
177 179   1
177 188   1
178 180   1
178 185   1
178 193   1
178 194   1
179 180   1
179 183   1
179 184   1
179 185   1
179 193   1
179 194   1
180 188   1
180 181   1
180 182   1
183 188   1
184 188   1
185 196   1
185 199   1
185 208   1
185 191   1
185 192   1
186 193   1
186 194   1
186 195   1
186 203   1
186 204   1
187 188   1
187 189   1
187 198   1
188 190   1
188 195   1
188 203   1
188 204   1
189 190   1
189 193   1
189 194   1
189 195   1
189 203   1
189 204   1
190 198   1
190 191   1
190 192   1
193 198   1
194 198   1
195 206   1
195 209   1
195 218   1
195 201   1
195 202   1
196 203   1
196 204   1
196 205   1
196 213   1
196 214   1
197 198   1
197 199   1
197 208   1
198 200   1
198 205   1
198 213   1
198 214   1
199 200   1
199 203   1
199 204   1
199 205   1
199 213   1
199 214   1
200 208   1
200 201   1
200 202   1
203 208   1
204 208   1
205 225   1
205 216   1
205 219   1
205 211   1
205 212   1
206 213   1
206 214   1
206 215   1
206 223   1
206 224   1
207 208   1
207 209   1
207 218   1
208 210   1
208 215   1
208 223   1
208 224   1
209 210   1
209 213   1
209 214   1
209 215   1
209 223   1
209 224   1
210 218   1
210 211   1
210 212   1
213 218   1
214 218   1
215 230   1
215 229   1
215 231   1
215 221   1
215 222   1
216 226   1
216 227   1
216 228   1
216 223   1
216 224   1
217 225   1
217 218   1
217 219   1
218 226   1
218 227   1
218 228   1
218 220   1
219 226   1
219 227   1
219 228   1
219 220   1
219 223   1
219 224   1
220 225   1
220 221   1
220 222   1
223 225   1
224 225   1
225 232   1
226 230   1
226 229   1
226 231   1
227 230   1
227 229   1
227 231   1
228 233   1
228 234   1
228 235   1
229 232   1
230 232   1
231 237   1
231 236   1
231 238   1
232 239   1
233 237   1
233 236   1
233 238   1
234 237   1
234 236   1
234 238   1
235 240   1
235 241   1
235 242   1
236 239   1
237 239   1
238 244   1
238 243   1
238 245   1
239 246   1
240 244   1
240 243   1
240 245   1
241 244   1
241 243   1
241 245   1
242 247   1
242 248   1
242 249   1
243 246   1
244 246   1
245 251   1
245 250   1
245 252   1
246 253   1
247 251   1
247 250   1
247 252   1
248 251   1
248 250   1
248 252   1
249 254   1
249 255   1
249 256   1
250 253   1
251 253   1
252 258   1
252 257   1
252 259   1
253 260   1
254 258   1
254 257   1
254 259   1
255 258   1
255 257   1
255 259   1
256 261   1
256 262   1
256 263   1
257 260   1
258 260   1
259 265   1
259 264   1
259 266   1
260 267   1
261 265   1
261 264   1
261 266   1
262 265   1
262 264   1
262 266   1
263 268   1
263 269   1
263 270   1
264 267   1
265 267   1
266 272   1
266 271   1
266 273   1
267 274   1
268 272   1
268 271   1
268 273   1
269 272   1
269 271   1
269 273   1
270 275   1
270 276   1
270 277   1
271 274   1
272 274   1
273 279   1
273 278   1
273 280   1
274 281   1
275 279   1
275 278   1
275 280   1
276 279   1
276 278   1
276 280   1
277 282   1
277 283   1
277 284   1
278 281   1
279 281   1
280 286   1
280 285   1
280 287   1
281 288   1
282 286   1
282 285   1
282 287   1
283 286   1
283 285   1
283 287   1
284 289   1
284 290   1
284 291   1
285 288   1
286 288   1
287 293   1
287 292   1
287 294   1
288 295   1
289 293   1
289 292   1
289 294   1
290 293   1
290 292   1
290 294   1
291 296   1
291 297   1
291 298   1
292 295   1
293 295   1
294 300   1
294 299   1
294 301   1
295 302   1
296 300   1
296 299   1
296 301   1
297 300   1
297 299   1
297 301   1
298 303   1
298 304   1
298 305   1
299 302   1
300 302   1
301 307   1
301 306   1
301 308   1
302 309   1
303 307   1
303 306   1
303 308   1
304 307   1
304 306   1
304 308   1
305 310   1
305 311   1
305 313   1
306 309   1
307 309   1
308 315   1
308 314   1
308 316   1
309 317   1
310 315   1
310 314   1
310 316   1
311 315   1
311 314   1
311 316   1
312 313   1
313 318   1
313 319   1
314 317   1
315 317   1
        
[ angles ]       
;   578 angles
  1   4   5   5
  1   4   3   5
  1   4   2   5
  2   4   5   5
  2   4   3   5
  3   4   5   5
  4   5  18   5
  4   5   9   5
  4   5   8   5
  4   5   6   5
  5   8  14   5
  5   8  13   5
  5   6  10   5
  5   6   7   5
  6   7  12   5
  6   7  11   5
  6   5  18   5
  6   5   9   5
  6   5   8   5
  7   6  10   5
  8   5  18   5
  8   5   9   5
  9   5  18   5
 11   7  12   5
 13   8  14   5
 15  18   5   5
 15  18  24   5
 15  18  23   5
 15  16  20   5
 15  16  17   5
 16  17  22   5
 16  17  21   5
 16  15  28   5
 16  15  19   5
 16  15  18   5
 17  16  20   5
 18  15  28   5
 18  15  19   5
 19  15  28   5
 21  17  22   5
 23  18   5   5
 23  18  24   5
 24  18   5   5
 25  28  15   5
 25  28  34   5
 25  28  33   5
 25  26  30   5
 25  26  27   5
 26  27  32   5
 26  27  31   5
 26  25  38   5
 26  25  29   5
 26  25  28   5
 27  26  30   5
 28  25  38   5
 28  25  29   5
 29  25  38   5
 31  27  32   5
 33  28  15   5
 33  28  34   5
 34  28  15   5
 35  38  25   5
 35  38  44   5
 35  38  43   5
 35  36  40   5
 35  36  37   5
 36  37  42   5
 36  37  41   5
 36  35  48   5
 36  35  39   5
 36  35  38   5
 37  36  40   5
 38  35  48   5
 38  35  39   5
 39  35  48   5
 41  37  42   5
 43  38  25   5
 43  38  44   5
 44  38  25   5
 45  48  35   5
 45  48  54   5
 45  48  53   5
 45  46  50   5
 45  46  47   5
 46  47  52   5
 46  47  51   5
 46  45  58   5
 46  45  49   5
 46  45  48   5
 47  46  50   5
 48  45  58   5
 48  45  49   5
 49  45  58   5
 51  47  52   5
 53  48  35   5
 53  48  54   5
 54  48  35   5
 55  58  45   5
 55  58  64   5
 55  58  63   5
 55  56  60   5
 55  56  57   5
 56  57  62   5
 56  57  61   5
 56  55  68   5
 56  55  59   5
 56  55  58   5
 57  56  60   5
 58  55  68   5
 58  55  59   5
 59  55  68   5
 61  57  62   5
 63  58  45   5
 63  58  64   5
 64  58  45   5
 65  68  55   5
 65  68  74   5
 65  68  73   5
 65  66  70   5
 65  66  67   5
 66  67  72   5
 66  67  71   5
 66  65  78   5
 66  65  69   5
 66  65  68   5
 67  66  70   5
 68  65  78   5
 68  65  69   5
 69  65  78   5
 71  67  72   5
 73  68  55   5
 73  68  74   5
 74  68  55   5
 75  78  65   5
 75  78  84   5
 75  78  83   5
 75  76  80   5
 75  76  77   5
 76  77  82   5
 76  77  81   5
 76  75  88   5
 76  75  79   5
 76  75  78   5
 77  76  80   5
 78  75  88   5
 78  75  79   5
 79  75  88   5
 81  77  82   5
 83  78  65   5
 83  78  84   5
 84  78  65   5
 85  88  75   5
 85  88  94   5
 85  88  93   5
 85  86  90   5
 85  86  87   5
 86  87  92   5
 86  87  91   5
 86  85  98   5
 86  85  89   5
 86  85  88   5
 87  86  90   5
 88  85  98   5
 88  85  89   5
 89  85  98   5
 91  87  92   5
 93  88  75   5
 93  88  94   5
 94  88  75   5
 95  98  85   5
 95  98 104   5
 95  98 103   5
 95  96 100   5
 95  96  97   5
 96  97 102   5
 96  97 101   5
 96  95 108   5
 96  95  99   5
 96  95  98   5
 97  96 100   5
 98  95 108   5
 98  95  99   5
 99  95 108   5
101  97 102   5
103  98  85   5
103  98 104   5
104  98  85   5
105 108  95   5
105 108 114   5
105 108 113   5
105 106 110   5
105 106 107   5
106 107 112   5
106 107 111   5
106 105 118   5
106 105 109   5
106 105 108   5
107 106 110   5
108 105 118   5
108 105 109   5
109 105 118   5
111 107 112   5
113 108  95   5
113 108 114   5
114 108  95   5
115 118 105   5
115 118 124   5
115 118 123   5
115 116 120   5
115 116 117   5
116 117 122   5
116 117 121   5
116 115 128   5
116 115 119   5
116 115 118   5
117 116 120   5
118 115 128   5
118 115 119   5
119 115 128   5
121 117 122   5
123 118 105   5
123 118 124   5
124 118 105   5
125 128 115   5
125 128 134   5
125 128 133   5
125 126 130   5
125 126 127   5
126 127 132   5
126 127 131   5
126 125 138   5
126 125 129   5
126 125 128   5
127 126 130   5
128 125 138   5
128 125 129   5
129 125 138   5
131 127 132   5
133 128 115   5
133 128 134   5
134 128 115   5
135 138 125   5
135 138 144   5
135 138 143   5
135 136 140   5
135 136 137   5
136 137 142   5
136 137 141   5
136 135 148   5
136 135 139   5
136 135 138   5
137 136 140   5
138 135 148   5
138 135 139   5
139 135 148   5
141 137 142   5
143 138 125   5
143 138 144   5
144 138 125   5
145 148 135   5
145 148 154   5
145 148 153   5
145 146 150   5
145 146 147   5
146 147 152   5
146 147 151   5
146 145 158   5
146 145 149   5
146 145 148   5
147 146 150   5
148 145 158   5
148 145 149   5
149 145 158   5
151 147 152   5
153 148 135   5
153 148 154   5
154 148 135   5
155 158 145   5
155 158 164   5
155 158 163   5
155 156 160   5
155 156 157   5
156 157 162   5
156 157 161   5
156 155 168   5
156 155 159   5
156 155 158   5
157 156 160   5
158 155 168   5
158 155 159   5
159 155 168   5
161 157 162   5
163 158 145   5
163 158 164   5
164 158 145   5
165 168 155   5
165 168 174   5
165 168 173   5
165 166 170   5
165 166 167   5
166 167 172   5
166 167 171   5
166 165 178   5
166 165 169   5
166 165 168   5
167 166 170   5
168 165 178   5
168 165 169   5
169 165 178   5
171 167 172   5
173 168 155   5
173 168 174   5
174 168 155   5
175 178 165   5
175 178 184   5
175 178 183   5
175 176 180   5
175 176 177   5
176 177 182   5
176 177 181   5
176 175 188   5
176 175 179   5
176 175 178   5
177 176 180   5
178 175 188   5
178 175 179   5
179 175 188   5
181 177 182   5
183 178 165   5
183 178 184   5
184 178 165   5
185 188 175   5
185 188 194   5
185 188 193   5
185 186 190   5
185 186 187   5
186 187 192   5
186 187 191   5
186 185 198   5
186 185 189   5
186 185 188   5
187 186 190   5
188 185 198   5
188 185 189   5
189 185 198   5
191 187 192   5
193 188 175   5
193 188 194   5
194 188 175   5
195 198 185   5
195 198 204   5
195 198 203   5
195 196 200   5
195 196 197   5
196 197 202   5
196 197 201   5
196 195 208   5
196 195 199   5
196 195 198   5
197 196 200   5
198 195 208   5
198 195 199   5
199 195 208   5
201 197 202   5
203 198 185   5
203 198 204   5
204 198 185   5
205 208 195   5
205 208 214   5
205 208 213   5
205 206 210   5
205 206 207   5
206 207 212   5
206 207 211   5
206 205 218   5
206 205 209   5
206 205 208   5
207 206 210   5
208 205 218   5
208 205 209   5
209 205 218   5
211 207 212   5
213 208 195   5
213 208 214   5
214 208 195   5
215 225 228   5
215 225 227   5
215 225 226   5
215 218 205   5
215 218 224   5
215 218 223   5
215 216 220   5
215 216 217   5
216 217 222   5
216 217 221   5
216 215 219   5
216 215 218   5
217 216 220   5
218 215 219   5
221 217 222   5
223 218 205   5
223 218 224   5
224 218 205   5
225 215 219   5
225 215 218   5
225 215 216   5
226 225 228   5
226 225 227   5
227 225 228   5
228 231 232   5
229 228 225   5
229 228 231   5
230 228 225   5
230 228 231   5
230 228 229   5
231 232 235   5
231 232 234   5
231 232 233   5
231 228 225   5
233 232 235   5
233 232 234   5
234 232 235   5
235 238 239   5
236 235 232   5
236 235 238   5
237 235 232   5
237 235 238   5
237 235 236   5
238 239 242   5
238 239 241   5
238 239 240   5
238 235 232   5
240 239 242   5
240 239 241   5
241 239 242   5
242 245 246   5
243 242 239   5
243 242 245   5
244 242 239   5
244 242 245   5
244 242 243   5
245 246 249   5
245 246 248   5
245 246 247   5
245 242 239   5
247 246 249   5
247 246 248   5
248 246 249   5
249 252 253   5
250 249 246   5
250 249 252   5
251 249 246   5
251 249 252   5
251 249 250   5
252 253 256   5
252 253 255   5
252 253 254   5
252 249 246   5
254 253 256   5
254 253 255   5
255 253 256   5
256 259 260   5
257 256 253   5
257 256 259   5
258 256 253   5
258 256 259   5
258 256 257   5
259 260 263   5
259 260 262   5
259 260 261   5
259 256 253   5
261 260 263   5
261 260 262   5
262 260 263   5
263 266 267   5
264 263 260   5
264 263 266   5
265 263 260   5
265 263 266   5
265 263 264   5
266 267 270   5
266 267 269   5
266 267 268   5
266 263 260   5
268 267 270   5
268 267 269   5
269 267 270   5
270 273 274   5
271 270 267   5
271 270 273   5
272 270 267   5
272 270 273   5
272 270 271   5
273 274 277   5
273 274 276   5
273 274 275   5
273 270 267   5
275 274 277   5
275 274 276   5
276 274 277   5
277 280 281   5
278 277 274   5
278 277 280   5
279 277 274   5
279 277 280   5
279 277 278   5
280 281 284   5
280 281 283   5
280 281 282   5
280 277 274   5
282 281 284   5
282 281 283   5
283 281 284   5
284 287 288   5
285 284 281   5
285 284 287   5
286 284 281   5
286 284 287   5
286 284 285   5
287 288 291   5
287 288 290   5
287 288 289   5
287 284 281   5
289 288 291   5
289 288 290   5
290 288 291   5
291 294 295   5
292 291 288   5
292 291 294   5
293 291 288   5
293 291 294   5
293 291 292   5
294 295 298   5
294 295 297   5
294 295 296   5
294 291 288   5
296 295 298   5
296 295 297   5
297 295 298   5
298 301 302   5
299 298 295   5
299 298 301   5
300 298 295   5
300 298 301   5
300 298 299   5
301 302 305   5
301 302 304   5
301 302 303   5
301 298 295   5
303 302 305   5
303 302 304   5
304 302 305   5
305 308 309   5
306 305 302   5
306 305 308   5
307 305 302   5
307 305 308   5
307 305 306   5
308 309 313   5
308 309 311   5
308 309 310   5
308 305 302   5
310 309 313   5
310 309 311   5
311 309 313   5
312 317 319   5
312 317 318   5
312 317 316   5
313 316 317   5
314 313 309   5
314 313 316   5
315 313 309   5
315 313 316   5
315 313 314   5
316 317 319   5
316 317 318   5
316 313 309   5
318 317 319   5
       
[ dihedrals ]    
;   827 dihedrals
  1   4   5   6   9
  1   4   5   8   9
  1   4   5   9   9
  1   4   5  18   9
  2   4   5   6   9
  2   4   5   8   9
  2   4   5   9   9
  2   4   5  18   9
  3   4   5   6   9
  3   4   5   8   9
  3   4   5   9   9
  3   4   5  18   9
  4   5   6   7   9
  4   5   6  10   9
  4   5   8  13   9
  4   5   8  14   9
  4   5  18  15   9
  4   5  18  23   9
  4   5  18  24   9
  5  18  15  16   9
  5  18  15  19   9
  5  18  15  28   9
  5   6   7  11   9
  5   6   7  12   9
  6   5   8  13   9
  6   5   8  14   9
  6   5  18  15   9
  6   5  18  23   9
  6   5  18  24   9
  7   6   5   8   9
  7   6   5   9   9
  7   6   5  18   9
  8   5   6  10   9
  8   5  18  15   9
  8   5  18  23   9
  8   5  18  24   9
  9   5   6  10   9
  9   5   8  13   9
  9   5   8  14   9
  9   5  18  15   9
  9   5  18  23   9
  9   5  18  24   9
 10   6   5  18   9
 10   6   7  11   9
 10   6   7  12   9
 13   8   5  18   9
 14   8   5  18   9
 15  28  25  26   9
 15  28  25  29   9
 15  28  25  38   9
 15  16  17  21   9
 15  16  17  22   9
 16  15  18  23   9
 16  15  18  24   9
 16  15  28  25   9
 16  15  28  33   9
 16  15  28  34   9
 17  16  15  18   9
 17  16  15  19   9
 17  16  15  28   9
 18  15  16  20   9
 18  15  28  25   9
 18  15  28  33   9
 18  15  28  34   9
 19  15  16  20   9
 19  15  18  23   9
 19  15  18  24   9
 19  15  28  25   9
 19  15  28  33   9
 19  15  28  34   9
 20  16  15  28   9
 20  16  17  21   9
 20  16  17  22   9
 23  18  15  28   9
 24  18  15  28   9
 25  38  35  36   9
 25  38  35  39   9
 25  38  35  48   9
 25  26  27  31   9
 25  26  27  32   9
 26  25  28  33   9
 26  25  28  34   9
 26  25  38  35   9
 26  25  38  43   9
 26  25  38  44   9
 27  26  25  28   9
 27  26  25  29   9
 27  26  25  38   9
 28  25  26  30   9
 28  25  38  35   9
 28  25  38  43   9
 28  25  38  44   9
 29  25  26  30   9
 29  25  28  33   9
 29  25  28  34   9
 29  25  38  35   9
 29  25  38  43   9
 29  25  38  44   9
 30  26  25  38   9
 30  26  27  31   9
 30  26  27  32   9
 33  28  25  38   9
 34  28  25  38   9
 35  48  45  46   9
 35  48  45  49   9
 35  48  45  58   9
 35  36  37  41   9
 35  36  37  42   9
 36  35  38  43   9
 36  35  38  44   9
 36  35  48  45   9
 36  35  48  53   9
 36  35  48  54   9
 37  36  35  38   9
 37  36  35  39   9
 37  36  35  48   9
 38  35  36  40   9
 38  35  48  45   9
 38  35  48  53   9
 38  35  48  54   9
 39  35  36  40   9
 39  35  38  43   9
 39  35  38  44   9
 39  35  48  45   9
 39  35  48  53   9
 39  35  48  54   9
 40  36  35  48   9
 40  36  37  41   9
 40  36  37  42   9
 43  38  35  48   9
 44  38  35  48   9
 45  58  55  56   9
 45  58  55  59   9
 45  58  55  68   9
 45  46  47  51   9
 45  46  47  52   9
 46  45  48  53   9
 46  45  48  54   9
 46  45  58  55   9
 46  45  58  63   9
 46  45  58  64   9
 47  46  45  48   9
 47  46  45  49   9
 47  46  45  58   9
 48  45  46  50   9
 48  45  58  55   9
 48  45  58  63   9
 48  45  58  64   9
 49  45  46  50   9
 49  45  48  53   9
 49  45  48  54   9
 49  45  58  55   9
 49  45  58  63   9
 49  45  58  64   9
 50  46  45  58   9
 50  46  47  51   9
 50  46  47  52   9
 53  48  45  58   9
 54  48  45  58   9
 55  68  65  66   9
 55  68  65  69   9
 55  68  65  78   9
 55  56  57  61   9
 55  56  57  62   9
 56  55  58  63   9
 56  55  58  64   9
 56  55  68  65   9
 56  55  68  73   9
 56  55  68  74   9
 57  56  55  58   9
 57  56  55  59   9
 57  56  55  68   9
 58  55  56  60   9
 58  55  68  65   9
 58  55  68  73   9
 58  55  68  74   9
 59  55  56  60   9
 59  55  58  63   9
 59  55  58  64   9
 59  55  68  65   9
 59  55  68  73   9
 59  55  68  74   9
 60  56  55  68   9
 60  56  57  61   9
 60  56  57  62   9
 63  58  55  68   9
 64  58  55  68   9
 65  78  75  76   9
 65  78  75  79   9
 65  78  75  88   9
 65  66  67  71   9
 65  66  67  72   9
 66  65  68  73   9
 66  65  68  74   9
 66  65  78  75   9
 66  65  78  83   9
 66  65  78  84   9
 67  66  65  68   9
 67  66  65  69   9
 67  66  65  78   9
 68  65  66  70   9
 68  65  78  75   9
 68  65  78  83   9
 68  65  78  84   9
 69  65  66  70   9
 69  65  68  73   9
 69  65  68  74   9
 69  65  78  75   9
 69  65  78  83   9
 69  65  78  84   9
 70  66  65  78   9
 70  66  67  71   9
 70  66  67  72   9
 73  68  65  78   9
 74  68  65  78   9
 75  88  85  86   9
 75  88  85  89   9
 75  88  85  98   9
 75  76  77  81   9
 75  76  77  82   9
 76  75  78  83   9
 76  75  78  84   9
 76  75  88  85   9
 76  75  88  93   9
 76  75  88  94   9
 77  76  75  78   9
 77  76  75  79   9
 77  76  75  88   9
 78  75  76  80   9
 78  75  88  85   9
 78  75  88  93   9
 78  75  88  94   9
 79  75  76  80   9
 79  75  78  83   9
 79  75  78  84   9
 79  75  88  85   9
 79  75  88  93   9
 79  75  88  94   9
 80  76  75  88   9
 80  76  77  81   9
 80  76  77  82   9
 83  78  75  88   9
 84  78  75  88   9
 85  98  95  96   9
 85  98  95  99   9
 85  98  95 108   9
 85  86  87  91   9
 85  86  87  92   9
 86  85  88  93   9
 86  85  88  94   9
 86  85  98  95   9
 86  85  98 103   9
 86  85  98 104   9
 87  86  85  88   9
 87  86  85  89   9
 87  86  85  98   9
 88  85  86  90   9
 88  85  98  95   9
 88  85  98 103   9
 88  85  98 104   9
 89  85  86  90   9
 89  85  88  93   9
 89  85  88  94   9
 89  85  98  95   9
 89  85  98 103   9
 89  85  98 104   9
 90  86  85  98   9
 90  86  87  91   9
 90  86  87  92   9
 93  88  85  98   9
 94  88  85  98   9
 95 108 105 106   9
 95 108 105 109   9
 95 108 105 118   9
 95  96  97 101   9
 95  96  97 102   9
 96  95  98 103   9
 96  95  98 104   9
 96  95 108 105   9
 96  95 108 113   9
 96  95 108 114   9
 97  96  95  98   9
 97  96  95  99   9
 97  96  95 108   9
 98  95  96 100   9
 98  95 108 105   9
 98  95 108 113   9
 98  95 108 114   9
 99  95  96 100   9
 99  95  98 103   9
 99  95  98 104   9
 99  95 108 105   9
 99  95 108 113   9
 99  95 108 114   9
100  96  95 108   9
100  96  97 101   9
100  96  97 102   9
103  98  95 108   9
104  98  95 108   9
105 118 115 116   9
105 118 115 119   9
105 118 115 128   9
105 106 107 111   9
105 106 107 112   9
106 105 108 113   9
106 105 108 114   9
106 105 118 115   9
106 105 118 123   9
106 105 118 124   9
107 106 105 108   9
107 106 105 109   9
107 106 105 118   9
108 105 106 110   9
108 105 118 115   9
108 105 118 123   9
108 105 118 124   9
109 105 106 110   9
109 105 108 113   9
109 105 108 114   9
109 105 118 115   9
109 105 118 123   9
109 105 118 124   9
110 106 105 118   9
110 106 107 111   9
110 106 107 112   9
113 108 105 118   9
114 108 105 118   9
115 128 125 126   9
115 128 125 129   9
115 128 125 138   9
115 116 117 121   9
115 116 117 122   9
116 115 118 123   9
116 115 118 124   9
116 115 128 125   9
116 115 128 133   9
116 115 128 134   9
117 116 115 118   9
117 116 115 119   9
117 116 115 128   9
118 115 116 120   9
118 115 128 125   9
118 115 128 133   9
118 115 128 134   9
119 115 116 120   9
119 115 118 123   9
119 115 118 124   9
119 115 128 125   9
119 115 128 133   9
119 115 128 134   9
120 116 115 128   9
120 116 117 121   9
120 116 117 122   9
123 118 115 128   9
124 118 115 128   9
125 138 135 136   9
125 138 135 139   9
125 138 135 148   9
125 126 127 131   9
125 126 127 132   9
126 125 128 133   9
126 125 128 134   9
126 125 138 135   9
126 125 138 143   9
126 125 138 144   9
127 126 125 128   9
127 126 125 129   9
127 126 125 138   9
128 125 126 130   9
128 125 138 135   9
128 125 138 143   9
128 125 138 144   9
129 125 126 130   9
129 125 128 133   9
129 125 128 134   9
129 125 138 135   9
129 125 138 143   9
129 125 138 144   9
130 126 125 138   9
130 126 127 131   9
130 126 127 132   9
133 128 125 138   9
134 128 125 138   9
135 148 145 146   9
135 148 145 149   9
135 148 145 158   9
135 136 137 141   9
135 136 137 142   9
136 135 138 143   9
136 135 138 144   9
136 135 148 145   9
136 135 148 153   9
136 135 148 154   9
137 136 135 138   9
137 136 135 139   9
137 136 135 148   9
138 135 136 140   9
138 135 148 145   9
138 135 148 153   9
138 135 148 154   9
139 135 136 140   9
139 135 138 143   9
139 135 138 144   9
139 135 148 145   9
139 135 148 153   9
139 135 148 154   9
140 136 135 148   9
140 136 137 141   9
140 136 137 142   9
143 138 135 148   9
144 138 135 148   9
145 158 155 156   9
145 158 155 159   9
145 158 155 168   9
145 146 147 151   9
145 146 147 152   9
146 145 148 153   9
146 145 148 154   9
146 145 158 155   9
146 145 158 163   9
146 145 158 164   9
147 146 145 148   9
147 146 145 149   9
147 146 145 158   9
148 145 146 150   9
148 145 158 155   9
148 145 158 163   9
148 145 158 164   9
149 145 146 150   9
149 145 148 153   9
149 145 148 154   9
149 145 158 155   9
149 145 158 163   9
149 145 158 164   9
150 146 145 158   9
150 146 147 151   9
150 146 147 152   9
153 148 145 158   9
154 148 145 158   9
155 168 165 166   9
155 168 165 169   9
155 168 165 178   9
155 156 157 161   9
155 156 157 162   9
156 155 158 163   9
156 155 158 164   9
156 155 168 165   9
156 155 168 173   9
156 155 168 174   9
157 156 155 158   9
157 156 155 159   9
157 156 155 168   9
158 155 156 160   9
158 155 168 165   9
158 155 168 173   9
158 155 168 174   9
159 155 156 160   9
159 155 158 163   9
159 155 158 164   9
159 155 168 165   9
159 155 168 173   9
159 155 168 174   9
160 156 155 168   9
160 156 157 161   9
160 156 157 162   9
163 158 155 168   9
164 158 155 168   9
165 178 175 176   9
165 178 175 179   9
165 178 175 188   9
165 166 167 171   9
165 166 167 172   9
166 165 168 173   9
166 165 168 174   9
166 165 178 175   9
166 165 178 183   9
166 165 178 184   9
167 166 165 168   9
167 166 165 169   9
167 166 165 178   9
168 165 166 170   9
168 165 178 175   9
168 165 178 183   9
168 165 178 184   9
169 165 166 170   9
169 165 168 173   9
169 165 168 174   9
169 165 178 175   9
169 165 178 183   9
169 165 178 184   9
170 166 165 178   9
170 166 167 171   9
170 166 167 172   9
173 168 165 178   9
174 168 165 178   9
175 188 185 186   9
175 188 185 189   9
175 188 185 198   9
175 176 177 181   9
175 176 177 182   9
176 175 178 183   9
176 175 178 184   9
176 175 188 185   9
176 175 188 193   9
176 175 188 194   9
177 176 175 178   9
177 176 175 179   9
177 176 175 188   9
178 175 176 180   9
178 175 188 185   9
178 175 188 193   9
178 175 188 194   9
179 175 176 180   9
179 175 178 183   9
179 175 178 184   9
179 175 188 185   9
179 175 188 193   9
179 175 188 194   9
180 176 175 188   9
180 176 177 181   9
180 176 177 182   9
183 178 175 188   9
184 178 175 188   9
185 198 195 196   9
185 198 195 199   9
185 198 195 208   9
185 186 187 191   9
185 186 187 192   9
186 185 188 193   9
186 185 188 194   9
186 185 198 195   9
186 185 198 203   9
186 185 198 204   9
187 186 185 188   9
187 186 185 189   9
187 186 185 198   9
188 185 186 190   9
188 185 198 195   9
188 185 198 203   9
188 185 198 204   9
189 185 186 190   9
189 185 188 193   9
189 185 188 194   9
189 185 198 195   9
189 185 198 203   9
189 185 198 204   9
190 186 185 198   9
190 186 187 191   9
190 186 187 192   9
193 188 185 198   9
194 188 185 198   9
195 208 205 206   9
195 208 205 209   9
195 208 205 218   9
195 196 197 201   9
195 196 197 202   9
196 195 198 203   9
196 195 198 204   9
196 195 208 205   9
196 195 208 213   9
196 195 208 214   9
197 196 195 198   9
197 196 195 199   9
197 196 195 208   9
198 195 196 200   9
198 195 208 205   9
198 195 208 213   9
198 195 208 214   9
199 195 196 200   9
199 195 198 203   9
199 195 198 204   9
199 195 208 205   9
199 195 208 213   9
199 195 208 214   9
200 196 195 208   9
200 196 197 201   9
200 196 197 202   9
203 198 195 208   9
204 198 195 208   9
205 218 215 225   9
205 218 215 216   9
205 218 215 219   9
205 206 207 211   9
205 206 207 212   9
206 205 208 213   9
206 205 208 214   9
206 205 218 215   9
206 205 218 223   9
206 205 218 224   9
207 206 205 208   9
207 206 205 209   9
207 206 205 218   9
208 205 206 210   9
208 205 218 215   9
208 205 218 223   9
208 205 218 224   9
209 205 206 210   9
209 205 208 213   9
209 205 208 214   9
209 205 218 215   9
209 205 218 223   9
209 205 218 224   9
210 206 205 218   9
210 206 207 211   9
210 206 207 212   9
213 208 205 218   9
214 208 205 218   9
215 225 228 230   9
215 225 228 229   9
215 225 228 231   9
215 216 217 221   9
215 216 217 222   9
216 215 225 226   9
216 215 225 227   9
216 215 225 228   9
216 215 218 223   9
216 215 218 224   9
217 216 215 225   9
217 216 215 218   9
217 216 215 219   9
218 215 225 226   9
218 215 225 227   9
218 215 225 228   9
218 215 216 220   9
219 215 225 226   9
219 215 225 227   9
219 215 225 228   9
219 215 216 220   9
219 215 218 223   9
219 215 218 224   9
220 216 215 225   9
220 216 217 221   9
220 216 217 222   9
223 218 215 225   9
224 218 215 225   9
225 228 231 232   9
226 225 228 230   9
226 225 228 229   9
226 225 228 231   9
227 225 228 230   9
227 225 228 229   9
227 225 228 231   9
228 231 232 233   9
228 231 232 234   9
228 231 232 235   9
229 228 231 232   9
230 228 231 232   9
231 232 235 237   9
231 232 235 236   9
231 232 235 238   9
232 235 238 239   9
233 232 235 237   9
233 232 235 236   9
233 232 235 238   9
234 232 235 237   9
234 232 235 236   9
234 232 235 238   9
235 238 239 240   9
235 238 239 241   9
235 238 239 242   9
236 235 238 239   9
237 235 238 239   9
238 239 242 244   9
238 239 242 243   9
238 239 242 245   9
239 242 245 246   9
240 239 242 244   9
240 239 242 243   9
240 239 242 245   9
241 239 242 244   9
241 239 242 243   9
241 239 242 245   9
242 245 246 247   9
242 245 246 248   9
242 245 246 249   9
243 242 245 246   9
244 242 245 246   9
245 246 249 251   9
245 246 249 250   9
245 246 249 252   9
246 249 252 253   9
247 246 249 251   9
247 246 249 250   9
247 246 249 252   9
248 246 249 251   9
248 246 249 250   9
248 246 249 252   9
249 252 253 254   9
249 252 253 255   9
249 252 253 256   9
250 249 252 253   9
251 249 252 253   9
252 253 256 258   9
252 253 256 257   9
252 253 256 259   9
253 256 259 260   9
254 253 256 258   9
254 253 256 257   9
254 253 256 259   9
255 253 256 258   9
255 253 256 257   9
255 253 256 259   9
256 259 260 261   9
256 259 260 262   9
256 259 260 263   9
257 256 259 260   9
258 256 259 260   9
259 260 263 265   9
259 260 263 264   9
259 260 263 266   9
260 263 266 267   9
261 260 263 265   9
261 260 263 264   9
261 260 263 266   9
262 260 263 265   9
262 260 263 264   9
262 260 263 266   9
263 266 267 268   9
263 266 267 269   9
263 266 267 270   9
264 263 266 267   9
265 263 266 267   9
266 267 270 272   9
266 267 270 271   9
266 267 270 273   9
267 270 273 274   9
268 267 270 272   9
268 267 270 271   9
268 267 270 273   9
269 267 270 272   9
269 267 270 271   9
269 267 270 273   9
270 273 274 275   9
270 273 274 276   9
270 273 274 277   9
271 270 273 274   9
272 270 273 274   9
273 274 277 279   9
273 274 277 278   9
273 274 277 280   9
274 277 280 281   9
275 274 277 279   9
275 274 277 278   9
275 274 277 280   9
276 274 277 279   9
276 274 277 278   9
276 274 277 280   9
277 280 281 282   9
277 280 281 283   9
277 280 281 284   9
278 277 280 281   9
279 277 280 281   9
280 281 284 286   9
280 281 284 285   9
280 281 284 287   9
281 284 287 288   9
282 281 284 286   9
282 281 284 285   9
282 281 284 287   9
283 281 284 286   9
283 281 284 285   9
283 281 284 287   9
284 287 288 289   9
284 287 288 290   9
284 287 288 291   9
285 284 287 288   9
286 284 287 288   9
287 288 291 293   9
287 288 291 292   9
287 288 291 294   9
288 291 294 295   9
289 288 291 293   9
289 288 291 292   9
289 288 291 294   9
290 288 291 293   9
290 288 291 292   9
290 288 291 294   9
291 294 295 296   9
291 294 295 297   9
291 294 295 298   9
292 291 294 295   9
293 291 294 295   9
294 295 298 300   9
294 295 298 299   9
294 295 298 301   9
295 298 301 302   9
296 295 298 300   9
296 295 298 299   9
296 295 298 301   9
297 295 298 300   9
297 295 298 299   9
297 295 298 301   9
298 301 302 303   9
298 301 302 304   9
298 301 302 305   9
299 298 301 302   9
300 298 301 302   9
301 302 305 307   9
301 302 305 306   9
301 302 305 308   9
302 305 308 309   9
303 302 305 307   9
303 302 305 306   9
303 302 305 308   9
304 302 305 307   9
304 302 305 306   9
304 302 305 308   9
305 308 309 310   9
305 308 309 311   9
305 308 309 313   9
306 305 308 309   9
307 305 308 309   9
308 309 313 315   9
308 309 313 314   9
308 309 313 316   9
309 313 316 317   9
310 309 313 315   9
310 309 313 314   9
310 309 313 316   9
311 309 313 315   9
311 309 313 314   9
311 309 313 316   9
312 317 316 313   9
313 316 317 318   9
313 316 317 319   9
314 313 316 317   9
315 313 316 317   9
    
[ dihedrals ]    
;     0 impropers
    
[ cmap ]        
;     0 cmaps
    
#ifdef REST_ON
#include "../restrains/PBbPEO_rest.itp"
#endif
